 Entering Gaussian System, Link 0=/software/g09-B.01/g09/g09
 Initial command:
 /software/g09-B.01/g09/l1.exe /scratch/gloria/gaussian/Gau-27902.inp -scrdir=/scratch/gloria/gaussian/
 Entering Link 1 = /software/g09-B.01/g09/l1.exe PID=     27904.
  
 Copyright (c) 1988,1990,1992,1993,1995,1998,2003,2009,2010,
            Gaussian, Inc.  All Rights Reserved.
  
 This is part of the Gaussian(R) 09 program.  It is based on
 the Gaussian(R) 03 system (copyright 2003, Gaussian, Inc.),
 the Gaussian(R) 98 system (copyright 1998, Gaussian, Inc.),
 the Gaussian(R) 94 system (copyright 1995, Gaussian, Inc.),
 the Gaussian 92(TM) system (copyright 1992, Gaussian, Inc.),
 the Gaussian 90(TM) system (copyright 1990, Gaussian, Inc.),
 the Gaussian 88(TM) system (copyright 1988, Gaussian, Inc.),
 the Gaussian 86(TM) system (copyright 1986, Carnegie Mellon
 University), and the Gaussian 82(TM) system (copyright 1983,
 Carnegie Mellon University). Gaussian is a federally registered
 trademark of Gaussian, Inc.
  
 This software contains proprietary and confidential information,
 including trade secrets, belonging to Gaussian, Inc.
  
 This software is provided under written license and may be
 used, copied, transmitted, or stored only in accord with that
 written license.
  
 The following legend is applicable only to US Government
 contracts under FAR:
  
                    RESTRICTED RIGHTS LEGEND
  
 Use, reproduction and disclosure by the US Government is
 subject to restrictions as set forth in subparagraphs (a)
 and (c) of the Commercial Computer Software - Restricted
 Rights clause in FAR 52.227-19.
  
 Gaussian, Inc.
 340 Quinnipiac St., Bldg. 40, Wallingford CT 06492
  
  
 ---------------------------------------------------------------
 Warning -- This program may not be used in any manner that
 competes with the business of Gaussian, Inc. or will provide
 assistance to any competitor of Gaussian, Inc.  The licensee
 of this program is prohibited from giving any competitor of
 Gaussian, Inc. access to this program.  By using this program,
 the user acknowledges that Gaussian, Inc. is engaged in the
 business of creating and licensing software in the field of
 computational chemistry and represents and warrants to the
 licensee that it is not a competitor of Gaussian, Inc. and that
 it will not use this program in any manner prohibited above.
 ---------------------------------------------------------------
  

 Cite this work as:
 Gaussian 09, Revision B.01,
 M. J. Frisch, G. W. Trucks, H. B. Schlegel, G. E. Scuseria, 
 M. A. Robb, J. R. Cheeseman, G. Scalmani, V. Barone, B. Mennucci, 
 G. A. Petersson, H. Nakatsuji, M. Caricato, X. Li, H. P. Hratchian, 
 A. F. Izmaylov, J. Bloino, G. Zheng, J. L. Sonnenberg, M. Hada, 
 M. Ehara, K. Toyota, R. Fukuda, J. Hasegawa, M. Ishida, T. Nakajima, 
 Y. Honda, O. Kitao, H. Nakai, T. Vreven, J. A. Montgomery, Jr., 
 J. E. Peralta, F. Ogliaro, M. Bearpark, J. J. Heyd, E. Brothers, 
 K. N. Kudin, V. N. Staroverov, T. Keith, R. Kobayashi, J. Normand, 
 K. Raghavachari, A. Rendell, J. C. Burant, S. S. Iyengar, J. Tomasi, 
 M. Cossi, N. Rega, J. M. Millam, M. Klene, J. E. Knox, J. B. Cross, 
 V. Bakken, C. Adamo, J. Jaramillo, R. Gomperts, R. E. Stratmann, 
 O. Yazyev, A. J. Austin, R. Cammi, C. Pomelli, J. W. Ochterski, 
 R. L. Martin, K. Morokuma, V. G. Zakrzewski, G. A. Voth, 
 P. Salvador, J. J. Dannenberg, S. Dapprich, A. D. Daniels, 
 O. Farkas, J. B. Foresman, J. V. Ortiz, J. Cioslowski, 
 and D. J. Fox, Gaussian, Inc., Wallingford CT, 2010.
 
 ******************************************
 Gaussian 09:  EM64L-G09RevB.01 12-Aug-2010
                17-Oct-2012 
 ******************************************
 %nproc=12
 Will use up to   12 processors via shared memory.
 %mem=5000MB
 -----------------------
 #P M06/gen freq=hpmodes
 -----------------------
 1/10=4,30=1,38=1/1,3;
 2/12=2,17=6,18=5,40=1/2;
 3/5=7,11=2,16=1,25=1,30=1,71=2,74=-54/1,2,3;
 4//1;
 5/5=2,38=5,98=1/2;
 8/6=4,10=90,11=11/1;
 11/6=1,8=1,9=11,15=111,16=1/1,2,10;
 10/6=1/2;
 6/7=2,8=2,9=2,10=2,18=1,28=1/1;
 7/8=11,10=1,25=1/1,2,3,16;
 1/10=4,30=1/3;
 99//99;
 Leave Link    1 at Wed Oct 17 15:38:56 2012, MaxMem=  655360000 cpu:       0.3
 (Enter /software/g09-B.01/g09/l101.exe)
 ----------------------
 [M06L - OPT NOSOLVENT]
 ----------------------
 Symbolic Z-matrix:
 Charge =  1 Multiplicity = 1
 29                    0.        0.        0. 
 7                    -1.57886   0.96366   0.94378 
 7                    -1.57886  -0.96366  -0.94378 
 6                    -3.93801   2.01869   1.96886 
 6                    -3.93801  -2.01869  -1.96886 
 6                    -2.7771    0.51447   0.50276 
 6                    -2.7771   -0.51447  -0.50276 
 6                    -1.53316   1.91627   1.87074 
 6                    -1.53316  -1.91627  -1.87074 
 6                    -4.00337   1.01154   0.98665 
 6                    -4.00337  -1.01154  -0.98665 
 6                    -2.71375   2.46774   2.40687 
 6                    -2.71375  -2.46774  -2.40687 
 1                    -4.86074   2.43374   2.37324 
 1                    -4.86074  -2.43374  -2.37324 
 1                    -2.64225   3.24529   3.16436 
 1                    -2.64225  -3.24529  -3.16436 
 6                    -5.23144   0.48667   0.4744 
 6                    -5.23144  -0.48667  -0.4744 
 1                    -6.16788   0.88495   0.86258 
 1                    -6.16788  -0.88495  -0.86258 
 6                    -0.17699   2.36698   2.30565 
 6                    -0.17699  -2.36698  -2.30565 
 1                     0.40122  -1.51724  -2.69519 
 1                     0.40122   1.51724   2.69519 
 1                    -0.22706  -3.14071  -3.0786 
 1                    -0.22706   3.14071   3.0786 
 1                     0.38529  -2.76339  -1.44826 
 1                     0.38529   2.76339   1.44826 
 7                     1.57886  -0.96366   0.94378 
 7                     1.57886   0.96366  -0.94378 
 6                     3.93801  -2.01869   1.96886 
 6                     3.93801   2.01869  -1.96886 
 6                     2.7771   -0.51447   0.50276 
 6                     2.7771    0.51447  -0.50276 
 6                     1.53316  -1.91627   1.87074 
 6                     1.53316   1.91627  -1.87074 
 6                     4.00337  -1.01154   0.98665 
 6                     4.00337   1.01154  -0.98665 
 6                     2.71375  -2.46774   2.40687 
 6                     2.71375   2.46774  -2.40687 
 1                     4.86074  -2.43374   2.37324 
 1                     4.86074   2.43374  -2.37324 
 1                     2.64225  -3.24529   3.16436 
 1                     2.64225   3.24529  -3.16436 
 6                     5.23144  -0.48667   0.4744 
 6                     5.23144   0.48667  -0.4744 
 1                     6.16788  -0.88495   0.86258 
 1                     6.16788   0.88495  -0.86258 
 6                     0.17699  -2.36698   2.30565 
 6                     0.17699   2.36698  -2.30565 
 1                    -0.40122  -1.51724   2.69519 
 1                    -0.40122   1.51724  -2.69519 
 1                     0.22706  -3.14071   3.0786 
 1                     0.22706   3.14071  -3.0786 
 1                    -0.38529  -2.76339   1.44826 
 1                    -0.38529   2.76339  -1.44826 
 
 NAtoms=     57 NQM=     57 NQMF=      0 NMic=      0 NMicF=      0 NTot=     57.
                    Isotopes and Nuclear Properties:
 (Nuclear quadrupole moments (NQMom) in fm**2, nuclear magnetic moments (NMagM)
  in nuclear magnetons)

  Atom         1           2           3           4           5           6           7           8           9          10
 IAtWgt=          63          14          14          12          12          12          12          12          12          12
 AtmWgt=  62.9295992  14.0030740  14.0030740  12.0000000  12.0000000  12.0000000  12.0000000  12.0000000  12.0000000  12.0000000
 NucSpn=           3           2           2           0           0           0           0           0           0           0
 AtZEff=   0.0000000   0.0000000   0.0000000   0.0000000   0.0000000   0.0000000   0.0000000   0.0000000   0.0000000   0.0000000
 NQMom=  -22.0000000   2.0440000   2.0440000   0.0000000   0.0000000   0.0000000   0.0000000   0.0000000   0.0000000   0.0000000
 NMagM=    2.2233000   0.4037610   0.4037610   0.0000000   0.0000000   0.0000000   0.0000000   0.0000000   0.0000000   0.0000000

  Atom        11          12          13          14          15          16          17          18          19          20
 IAtWgt=          12          12          12           1           1           1           1          12          12           1
 AtmWgt=  12.0000000  12.0000000  12.0000000   1.0078250   1.0078250   1.0078250   1.0078250  12.0000000  12.0000000   1.0078250
 NucSpn=           0           0           0           1           1           1           1           0           0           1
 AtZEff=   0.0000000   0.0000000   0.0000000   0.0000000   0.0000000   0.0000000   0.0000000   0.0000000   0.0000000   0.0000000
 NQMom=    0.0000000   0.0000000   0.0000000   0.0000000   0.0000000   0.0000000   0.0000000   0.0000000   0.0000000   0.0000000
 NMagM=    0.0000000   0.0000000   0.0000000   2.7928460   2.7928460   2.7928460   2.7928460   0.0000000   0.0000000   2.7928460

  Atom        21          22          23          24          25          26          27          28          29          30
 IAtWgt=           1          12          12           1           1           1           1           1           1          14
 AtmWgt=   1.0078250  12.0000000  12.0000000   1.0078250   1.0078250   1.0078250   1.0078250   1.0078250   1.0078250  14.0030740
 NucSpn=           1           0           0           1           1           1           1           1           1           2
 AtZEff=   0.0000000   0.0000000   0.0000000   0.0000000   0.0000000   0.0000000   0.0000000   0.0000000   0.0000000   0.0000000
 NQMom=    0.0000000   0.0000000   0.0000000   0.0000000   0.0000000   0.0000000   0.0000000   0.0000000   0.0000000   2.0440000
 NMagM=    2.7928460   0.0000000   0.0000000   2.7928460   2.7928460   2.7928460   2.7928460   2.7928460   2.7928460   0.4037610

  Atom        31          32          33          34          35          36          37          38          39          40
 IAtWgt=          14          12          12          12          12          12          12          12          12          12
 AtmWgt=  14.0030740  12.0000000  12.0000000  12.0000000  12.0000000  12.0000000  12.0000000  12.0000000  12.0000000  12.0000000
 NucSpn=           2           0           0           0           0           0           0           0           0           0
 AtZEff=   0.0000000   0.0000000   0.0000000   0.0000000   0.0000000   0.0000000   0.0000000   0.0000000   0.0000000   0.0000000
 NQMom=    2.0440000   0.0000000   0.0000000   0.0000000   0.0000000   0.0000000   0.0000000   0.0000000   0.0000000   0.0000000
 NMagM=    0.4037610   0.0000000   0.0000000   0.0000000   0.0000000   0.0000000   0.0000000   0.0000000   0.0000000   0.0000000

  Atom        41          42          43          44          45          46          47          48          49          50
 IAtWgt=          12           1           1           1           1          12          12           1           1          12
 AtmWgt=  12.0000000   1.0078250   1.0078250   1.0078250   1.0078250  12.0000000  12.0000000   1.0078250   1.0078250  12.0000000
 NucSpn=           0           1           1           1           1           0           0           1           1           0
 AtZEff=   0.0000000   0.0000000   0.0000000   0.0000000   0.0000000   0.0000000   0.0000000   0.0000000   0.0000000   0.0000000
 NQMom=    0.0000000   0.0000000   0.0000000   0.0000000   0.0000000   0.0000000   0.0000000   0.0000000   0.0000000   0.0000000
 NMagM=    0.0000000   2.7928460   2.7928460   2.7928460   2.7928460   0.0000000   0.0000000   2.7928460   2.7928460   0.0000000

  Atom        51          52          53          54          55          56          57
 IAtWgt=          12           1           1           1           1           1           1
 AtmWgt=  12.0000000   1.0078250   1.0078250   1.0078250   1.0078250   1.0078250   1.0078250
 NucSpn=           0           1           1           1           1           1           1
 AtZEff=   0.0000000   0.0000000   0.0000000   0.0000000   0.0000000   0.0000000   0.0000000
 NQMom=    0.0000000   0.0000000   0.0000000   0.0000000   0.0000000   0.0000000   0.0000000
 NMagM=    0.0000000   2.7928460   2.7928460   2.7928460   2.7928460   2.7928460   2.7928460
 Leave Link  101 at Wed Oct 17 15:38:56 2012, MaxMem=  655360000 cpu:       0.9
 (Enter /software/g09-B.01/g09/l103.exe)

 GradGradGradGradGradGradGradGradGradGradGradGradGradGradGradGradGradGrad
 Berny optimization.
 Initialization pass.
 Trust Radius=3.00D-01 FncErr=1.00D-07 GrdErr=1.00D-07
 Number of steps in this run=      2 maximum allowed number of steps=      2.
 GradGradGradGradGradGradGradGradGradGradGradGradGradGradGradGradGradGrad

 Leave Link  103 at Wed Oct 17 15:38:56 2012, MaxMem=  655360000 cpu:       0.2
 (Enter /software/g09-B.01/g09/l202.exe)
 Stoichiometry    C28H24CuN4(1+)
 Framework group  D2[O(Cu),X(C28H24N4)]
 Deg. of freedom    42
 Full point group                 D2      NOp   4
 Largest Abelian subgroup         D2      NOp   4
 Largest concise Abelian subgroup D2      NOp   4
                         Standard orientation:                         
 ---------------------------------------------------------------------
 Center     Atomic      Atomic             Coordinates (Angstroms)
 Number     Number       Type             X           Y           Z
 ---------------------------------------------------------------------
      1         29           0        0.000000    0.000000    0.000000
      2          7           0       -1.578860    0.963659    0.943781
      3          7           0       -1.578860   -0.963659   -0.943781
      4          6           0       -3.938012    2.018690    1.968857
      5          6           0       -3.938012   -2.018690   -1.968857
      6          6           0       -2.777101    0.514466    0.502755
      7          6           0       -2.777101   -0.514466   -0.502755
      8          6           0       -1.533162    1.916269    1.870735
      9          6           0       -1.533162   -1.916269   -1.870735
     10          6           0       -4.003372    1.011543    0.986652
     11          6           0       -4.003372   -1.011543   -0.986652
     12          6           0       -2.713754    2.467737    2.406866
     13          6           0       -2.713754   -2.467737   -2.406866
     14          1           0       -4.860744    2.433736    2.373241
     15          1           0       -4.860744   -2.433736   -2.373241
     16          1           0       -2.642249    3.245293    3.164363
     17          1           0       -2.642249   -3.245293   -3.164363
     18          6           0       -5.231436    0.486674    0.474402
     19          6           0       -5.231436   -0.486674   -0.474402
     20          1           0       -6.167877    0.884951    0.862580
     21          1           0       -6.167877   -0.884951   -0.862580
     22          6           0       -0.176985    2.366981    2.305648
     23          6           0       -0.176985   -2.366981   -2.305648
     24          1           0        0.401223   -1.517243   -2.695188
     25          1           0        0.401223    1.517243    2.695188
     26          1           0       -0.227062   -3.140706   -3.078599
     27          1           0       -0.227062    3.140706    3.078599
     28          1           0        0.385291   -2.763391   -1.448263
     29          1           0        0.385291    2.763391    1.448263
     30          7           0        1.578860   -0.963659    0.943781
     31          7           0        1.578860    0.963659   -0.943781
     32          6           0        3.938012   -2.018690    1.968857
     33          6           0        3.938012    2.018690   -1.968857
     34          6           0        2.777101   -0.514466    0.502755
     35          6           0        2.777101    0.514466   -0.502755
     36          6           0        1.533162   -1.916269    1.870735
     37          6           0        1.533162    1.916269   -1.870735
     38          6           0        4.003372   -1.011543    0.986652
     39          6           0        4.003372    1.011543   -0.986652
     40          6           0        2.713754   -2.467737    2.406866
     41          6           0        2.713754    2.467737   -2.406866
     42          1           0        4.860744   -2.433736    2.373241
     43          1           0        4.860744    2.433736   -2.373241
     44          1           0        2.642249   -3.245293    3.164363
     45          1           0        2.642249    3.245293   -3.164363
     46          6           0        5.231436   -0.486674    0.474402
     47          6           0        5.231436    0.486674   -0.474402
     48          1           0        6.167877   -0.884951    0.862580
     49          1           0        6.167877    0.884951   -0.862580
     50          6           0        0.176985   -2.366981    2.305648
     51          6           0        0.176985    2.366981   -2.305648
     52          1           0       -0.401223   -1.517243    2.695188
     53          1           0       -0.401223    1.517243   -2.695188
     54          1           0        0.227062   -3.140706    3.078599
     55          1           0        0.227062    3.140706   -3.078599
     56          1           0       -0.385291   -2.763391    1.448263
     57          1           0       -0.385291    2.763391   -1.448263
 ---------------------------------------------------------------------
 Rotational constants (GHZ):      0.2144639      0.0965931      0.0955202
 Leave Link  202 at Wed Oct 17 15:38:56 2012, MaxMem=  655360000 cpu:       0.0
 (Enter /software/g09-B.01/g09/l301.exe)
 General basis read from cards:  (5D, 7F)
 Centers:   4  5  6  7  8  9 10 11 12 13 18 19 22 23 32 33 34 35 36 37
 Centers:  38 39 40 41 46 47 50 51  2  3 30 31 14 15 16 17 20 21 24 25
 Centers:  26 27 28 29 42 43 44 45 48 49 52 53 54 55 56 57
 6-31g*
 ****
 Centers:   1
 TZVP
 ****
 Ernie: Thresh=  0.10000D-02 Tol=  0.10000D-05 Strict=F.
 There are   136 symmetry adapted basis functions of A   symmetry.
 There are   131 symmetry adapted basis functions of B1  symmetry.
 There are   131 symmetry adapted basis functions of B2  symmetry.
 There are   131 symmetry adapted basis functions of B3  symmetry.
 Integral buffers will be    131072 words long.
 Raffenetti 2 integral format.
 Two-electron integral symmetry is turned on.
   529 basis functions,  1078 primitive gaussians,   564 cartesian basis functions
   124 alpha electrons      124 beta electrons
       nuclear repulsion energy      4011.2350095237 Hartrees.
 IExCor= 4235 DFT=T Ex+Corr=M06 ExCW=0 ScaHFX=  0.270000
 ScaDFX=  1.000000  1.000000  1.000000  1.000000 ScalE2=  1.000000  1.000000
 IRadAn=      0 IRanWt=     -1 IRanGd=            0 ICorTp=0
 NAtoms=   57 NActive=   57 NUniq=   15 SFac= 4.00D+00 NAtFMM=   50 NAOKFM=T Big=F
 Leave Link  301 at Wed Oct 17 15:38:57 2012, MaxMem=  655360000 cpu:       0.6
 (Enter /software/g09-B.01/g09/l302.exe)
 NPDir=0 NMtPBC=     1 NCelOv=     1 NCel=       1 NClECP=     1 NCelD=      1
         NCelK=      1 NCelE2=     1 NClLst=     1 CellRange=     0.0.
 One-electron integrals computed using PRISM.
 One-electron integral symmetry used in STVInt
 NBasis=   529 RedAO= T  NBF=   136   131   131   131
 NBsUse=   529 1.00D-06 NBFU=   136   131   131   131
 Precomputing XC quadrature grid using
 IXCGrd= 2 IRadAn=           0 IRanWt=          -1 IRanGd=           0 AccXCQ= 0.00D+00.
 NRdTot=    3662 NPtTot=      468934 NUsed=      495322 NTot=      495354
 NSgBfM=   544   544   545   545   545 NAtAll=    57    57.
 Leave Link  302 at Wed Oct 17 15:38:58 2012, MaxMem=  655360000 cpu:       8.6
 (Enter /software/g09-B.01/g09/l303.exe)
 DipDrv:  MaxL=1.
 Leave Link  303 at Wed Oct 17 15:38:58 2012, MaxMem=  655360000 cpu:       1.3
 (Enter /software/g09-B.01/g09/l401.exe)
 Harris functional with IExCor= 1009 diagonalized for initial guess.
 ExpMin= 3.88D-02 ExpMax= 3.78D+05 ExpMxC= 3.65D+03 IAcc=3 IRadAn=         0 AccDes= 0.00D+00
 HarFok:  IExCor= 1009 AccDes= 0.00D+00 IRadAn=         0 IDoV= 1
 ScaDFX=  1.000000  1.000000  1.000000  1.000000
 FoFCou: FMM=F IPFlag=           0 FMFlag=      100000 FMFlg1=        2000
         NFxFlg=           0 DoJE=T BraDBF=F KetDBF=T FulRan=T
         Omega=  0.000000  0.000000  1.000000  0.000000  0.000000 ICntrl=     500 IOpCl=  0
         NMat0=    1 NMatS0=    1 NMatT0=    0 NMatD0=    1 NMtDS0=    0 NMtDT0=    0
         I1Cent=           4 NGrid=           0.
 Petite list used in FoFCou.
 Harris En= -2939.47071092940    
 Initial guess orbital symmetries:
       Occupied  (A) (A) (B3) (B2) (B1) (B2) (B1) (B3) (A) (B3)
                 (A) (B2) (B1) (A) (B3) (B2) (B1) (A) (B3) (B2)
                 (B1) (A) (B2) (B1) (B3) (B2) (B1) (A) (B3) (A)
                 (B3) (B2) (B1) (A) (B2) (B1) (B3) (A) (B3) (B2)
                 (B1) (A) (B3) (B2) (B1) (A) (B3) (B2) (B1) (A)
                 (B3) (B2) (B1) (A) (B3) (B2) (B1) (B3) (A) (A)
                 (B3) (A) (B3) (B1) (B2) (B2) (B1) (B1) (B2) (A)
                 (B3) (A) (B3) (B2) (B1) (A) (B3) (B1) (B2) (A)
                 (B3) (B2) (B1) (A) (B3) (A) (A) (B3) (B3) (B2)
                 (B1) (B2) (B1) (B2) (B1) (B3) (A) (B2) (B1) (B1)
                 (B2) (A) (B3) (B3) (A) (B1) (B2) (A) (B3) (B1)
                 (B2) (B1) (B2) (A) (B3) (A) (B3) (B1) (B2) (B2)
                 (B1) (A) (B3) (A)
       Virtual   (A) (B3) (B2) (B1) (B2) (B1) (B3) (A) (B3) (A)
                 (A) (B1) (B2) (A) (B3) (B2) (B1) (A) (B2) (B1)
                 (B3) (A) (A) (B3) (B2) (B1) (B3) (A) (B3) (A)
                 (A) (B2) (B1) (B3) (B2) (B1) (B3) (B2) (A) (B1)
                 (B2) (B1) (B3) (B2) (B1) (A) (B3) (A) (B2) (B1)
                 (B3) (B3) (A) (B1) (B2) (A) (B1) (B2) (B3) (A)
                 (B3) (A) (B1) (B2) (B1) (B2) (B3) (B3) (B1) (B2)
                 (A) (B1) (B2) (A) (B3) (B1) (B2) (A) (B3) (B2)
                 (B1) (B2) (A) (B1) (A) (B3) (B2) (B1) (B3) (B3)
                 (A) (B2) (B1) (B3) (A) (B3) (A) (B2) (B1) (A)
                 (B3) (A) (B2) (B1) (B2) (B1) (B3) (A) (B1) (B2)
                 (A) (B1) (B2) (A) (B1) (B3) (B2) (B3) (B3) (B3)
                 (B1) (B2) (A) (B1) (B2) (B2) (B1) (A) (A) (B1)
                 (B2) (B3) (B3) (B3) (A) (B3) (B2) (B1) (A) (B1)
                 (B2) (A) (B3) (B2) (B1) (B3) (A) (B3) (A) (B3)
                 (B1) (B2) (A) (B2) (B1) (B3) (B2) (B1) (A) (B1)
                 (B2) (A) (A) (B2) (B1) (B3) (B3) (A) (B2) (B1)
                 (B3) (A) (B2) (B1) (B3) (A) (B3) (B2) (B1) (B3)
                 (B2) (B1) (B2) (B3) (B1) (A) (B2) (B1) (A) (B3)
                 (B3) (A) (B1) (B2) (A) (B3) (A) (B2) (B1) (B1)
                 (B2) (B1) (B2) (A) (A) (B3) (B2) (B1) (B3) (A)
                 (B3) (B2) (B1) (B2) (B1) (B3) (A) (B2) (B1) (B1)
                 (B2) (A) (A) (B3) (B3) (B2) (B1) (A) (B3) (B2)
                 (B1) (B1) (B2) (A) (B3) (B1) (B2) (B3) (A) (B3)
                 (A) (A) (B3) (B1) (B2) (A) (B2) (B1) (B3) (A)
                 (B2) (B1) (B1) (B2) (A) (B3) (B3) (A) (B2) (B1)
                 (B3) (A) (A) (B3) (B2) (B1) (B2) (B1) (A) (B3)
                 (A) (B1) (B2) (B3) (B3) (A) (B2) (B1) (B3) (A)
                 (B1) (B2) (B1) (B3) (A) (B2) (B3) (A) (B2) (B1)
                 (A) (B1) (B2) (B3) (A) (B3) (A) (B1) (B2) (B2)
                 (B1) (B3) (B3) (B2) (B1) (A) (B3) (B2) (A) (B1)
                 (B1) (B2) (A) (B3) (A) (B3) (B2) (B1) (A) (B1)
                 (B3) (B2) (B3) (A) (B3) (A) (B2) (B1) (B2) (B1)
                 (B3) (A) (A) (B3) (B3) (B1) (B2) (B3) (A) (A)
                 (B1) (B2) (B1) (B2) (B1) (B2) (A) (B3) (B1) (B2)
                 (B3) (B1) (B2) (A) (A) (B3) (B1) (B2) (B1) (B2)
                 (B3) (A) (B1) (B2) (B3) (A) (B3) (A) (B3) (A)
                 (B2) (B1) (B3) (A) (B1) (B2) (B3) (B1) (B2) (A)
                 (B3) (A) (B2) (B1) (B1) (B2) (B3) (B1) (B2) (A)
                 (B3) (B2) (B1) (A) (B3) (B2) (B1) (B2) (B1) (A)
                 (A) (B2) (B1) (B3) (A)
 The electronic state of the initial guess is 1-A.
 Leave Link  401 at Wed Oct 17 15:38:59 2012, MaxMem=  655360000 cpu:      16.6
 (Enter /software/g09-B.01/g09/l502.exe)
 Closed shell SCF:
 Requested convergence on RMS density matrix=1.00D-08 within 128 cycles.
 Requested convergence on MAX density matrix=1.00D-06.
 Requested convergence on             energy=1.00D-06.
 No special actions if energy rises.
 Using DIIS extrapolation, IDIIS=  1040.
 Integral symmetry usage will be decided dynamically.
       494796 words used for storage of precomputed grid.
 IEnd=     1480368 IEndB=     1480368 NGot=   655360000 MDV=   654214933
 LenX=   654214933 LenY=   653896273
 Fock matrices will be formed incrementally for  20 cycles.

 Cycle   1  Pass 1  IDiag  1:
 FoFCou: FMM=F IPFlag=           0 FMFlag=      100000 FMFlg1=        2000
         NFxFlg=           0 DoJE=F BraDBF=F KetDBF=F FulRan=T
         Omega=  0.000000  0.000000  1.000000  0.000000  0.000000 ICntrl=       0 IOpCl=  0
         NMat0=    1 NMatS0=    1 NMatT0=    0 NMatD0=    1 NMtDS0=    0 NMtDT0=    0
         I1Cent=           0 NGrid=           0.
 Petite list used in FoFCou.
 E= -2919.09106945909    
 DIIS: error= 6.53D-01 at cycle   1 NSaved=   1.
 NSaved= 1 IEnMin= 1 EnMin= -2919.09106945909     IErMin= 1 ErrMin= 6.53D-01
 ErrMax= 6.53D-01 EMaxC= 1.00D-01 BMatC= 2.87D+01 BMatP= 2.87D+01
 IDIUse=3 WtCom= 0.00D+00 WtEn= 1.00D+00
 Coeff-Com:  0.100D+01
 Coeff-En:   0.100D+01
 Coeff:      0.100D+01
 Gap=    -0.764 Goal=   None    Shift=    0.000
 GapD=   -0.764 DampG=0.250 DampE=0.125 DampFc=0.1250 IDamp=-1.
 Damping current iteration by 1.25D-01
 RMSDP=6.51D-02 MaxDP=4.52D+00              OVMax= 9.62D-01

 Cycle   2  Pass 1  IDiag  1:
 RMSU=  5.75D-03    CP:  1.01D+00
 E= -2925.39174383362     Delta-E=       -6.300674374533 Rises=F Damp=T
 DIIS: error= 2.81D-01 at cycle   2 NSaved=   2.
 NSaved= 2 IEnMin= 2 EnMin= -2925.39174383362     IErMin= 2 ErrMin= 2.81D-01
 ErrMax= 2.81D-01 EMaxC= 1.00D-01 BMatC= 7.77D+00 BMatP= 2.87D+01
 IDIUse=3 WtCom= 0.00D+00 WtEn= 1.00D+00
 Coeff-Com: -0.825D+00 0.182D+01
 Coeff-En:   0.000D+00 0.100D+01
 Coeff:      0.000D+00 0.100D+01
 Gap=     0.049 Goal=   None    Shift=    0.000
 RMSDP=1.58D-02 MaxDP=3.29D+00 DE=-6.30D+00 OVMax= 9.93D-01

 Cycle   3  Pass 1  IDiag  1:
 RMSU=  1.09D-02    CP:  9.36D-01  6.05D-01
 E= -2910.49658347704     Delta-E=       14.895160356580 Rises=F Damp=F
 DIIS: error= 5.23D-01 at cycle   3 NSaved=   3.
 NSaved= 3 IEnMin= 2 EnMin= -2925.39174383362     IErMin= 2 ErrMin= 2.81D-01
 ErrMax= 5.23D-01 EMaxC= 1.00D-01 BMatC= 5.55D+01 BMatP= 7.77D+00
 IDIUse=2 WtCom= 0.00D+00 WtEn= 1.00D+00
 EnCoef did   100 forward-backward iterations
 Coeff-En:   0.543D+00 0.187D-01 0.438D+00
 Coeff:      0.543D+00 0.187D-01 0.438D+00
 Gap=     0.019 Goal=   None    Shift=    0.000
 RMSDP=1.48D-02 MaxDP=3.16D+00 DE= 1.49D+01 OVMax= 8.59D-01

 Cycle   4  Pass 1  IDiag  1:
 RMSU=  3.44D-03    CP:  9.47D-01  1.03D-01  1.32D-01
 E= -2936.32780349965     Delta-E=      -25.831220022608 Rises=F Damp=F
 DIIS: error= 2.40D-01 at cycle   4 NSaved=   4.
 NSaved= 4 IEnMin= 4 EnMin= -2936.32780349965     IErMin= 4 ErrMin= 2.40D-01
 ErrMax= 2.40D-01 EMaxC= 1.00D-01 BMatC= 5.35D+00 BMatP= 7.77D+00
 IDIUse=3 WtCom= 0.00D+00 WtEn= 1.00D+00
 EnCoef did   100 forward-backward iterations
 Coeff-Com: -0.345D+00 0.960D+00-0.103D-01 0.395D+00
 Coeff-En:   0.236D+00 0.250D-02 0.000D+00 0.762D+00
 Coeff:      0.236D+00 0.250D-02 0.000D+00 0.762D+00
 Gap=     0.322 Goal=   None    Shift=    0.000
 RMSDP=7.07D-03 MaxDP=2.02D-01 DE=-2.58D+01 OVMax= 7.56D-01

 Cycle   5  Pass 1  IDiag  1:
 RMSU=  4.08D-03    CP:  9.36D-01  2.29D-02  1.17D-01  1.72D-01
 E= -2931.04946419483     Delta-E=        5.278339304818 Rises=F Damp=F
 DIIS: error= 1.26D-01 at cycle   5 NSaved=   5.
 NSaved= 5 IEnMin= 4 EnMin= -2936.32780349965     IErMin= 5 ErrMin= 1.26D-01
 ErrMax= 1.26D-01 EMaxC= 1.00D-01 BMatC= 6.72D+00 BMatP= 5.35D+00
 IDIUse=2 WtCom= 0.00D+00 WtEn= 1.00D+00
 EnCoef did     8 forward-backward iterations
 Coeff-En:   0.164D+00 0.000D+00 0.000D+00 0.652D+00 0.185D+00
 Coeff:      0.164D+00 0.000D+00 0.000D+00 0.652D+00 0.185D+00
 Gap=     0.168 Goal=   None    Shift=    0.000
 RMSDP=4.80D-03 MaxDP=2.71D-01 DE= 5.28D+00 OVMax= 4.58D-01

 Cycle   6  Pass 1  IDiag  1:
 RMSU=  1.75D-03    CP:  9.39D-01  2.31D-02  8.68D-02  5.11D-01  3.50D-01
 E= -2939.60487345670     Delta-E=       -8.555409261874 Rises=F Damp=F
 DIIS: error= 4.36D-02 at cycle   6 NSaved=   6.
 NSaved= 6 IEnMin= 6 EnMin= -2939.60487345670     IErMin= 6 ErrMin= 4.36D-02
 ErrMax= 4.36D-02 EMaxC= 1.00D-01 BMatC= 4.34D-01 BMatP= 5.35D+00
 IDIUse=3 WtCom= 5.64D-01 WtEn= 4.36D-01
 Coeff-Com:  0.279D-01-0.166D-01-0.170D-01 0.238D+00 0.199D-02 0.766D+00
 Coeff-En:   0.000D+00 0.000D+00 0.000D+00 0.504D-01 0.000D+00 0.950D+00
 Coeff:      0.158D-01-0.938D-02-0.958D-02 0.156D+00 0.112D-02 0.846D+00
 Gap=     0.110 Goal=   None    Shift=    0.000
 RMSDP=2.24D-03 MaxDP=2.29D-01 DE=-8.56D+00 OVMax= 2.03D-01

 Cycle   7  Pass 1  IDiag  1:
 RMSU=  1.32D-03    CP:  9.44D-01  4.70D-03  6.08D-02  5.82D-01  1.73D-01
                    CP:  8.34D-01
 E= -2939.73146992047     Delta-E=       -0.126596463770 Rises=F Damp=F
 DIIS: error= 1.74D-02 at cycle   7 NSaved=   7.
 NSaved= 7 IEnMin= 7 EnMin= -2939.73146992047     IErMin= 7 ErrMin= 1.74D-02
 ErrMax= 1.74D-02 EMaxC= 1.00D-01 BMatC= 1.91D-01 BMatP= 4.34D-01
 IDIUse=3 WtCom= 8.26D-01 WtEn= 1.74D-01
 Coeff-Com:  0.796D-02-0.246D-01 0.427D-03 0.649D-01 0.543D-02 0.452D+00
 Coeff-Com:  0.494D+00
 Coeff-En:   0.000D+00 0.000D+00 0.000D+00 0.000D+00 0.000D+00 0.393D+00
 Coeff-En:   0.607D+00
 Coeff:      0.658D-02-0.203D-01 0.353D-03 0.536D-01 0.448D-02 0.442D+00
 Coeff:      0.513D+00
 Gap=     0.125 Goal=   None    Shift=    0.000
 RMSDP=1.02D-03 MaxDP=4.27D-02 DE=-1.27D-01 OVMax= 1.10D-01

 Cycle   8  Pass 1  IDiag  1:
 RMSU=  2.81D-04    CP:  9.41D-01  7.29D-03  6.78D-02  5.36D-01  2.50D-01
                    CP:  9.62D-01  6.14D-01
 E= -2939.91930148231     Delta-E=       -0.187831561838 Rises=F Damp=F
 DIIS: error= 1.00D-02 at cycle   8 NSaved=   8.
 NSaved= 8 IEnMin= 8 EnMin= -2939.91930148231     IErMin= 8 ErrMin= 1.00D-02
 ErrMax= 1.00D-02 EMaxC= 1.00D-01 BMatC= 1.70D-02 BMatP= 1.91D-01
 IDIUse=3 WtCom= 9.00D-01 WtEn= 1.00D-01
 Coeff-Com:  0.205D-02-0.158D-01 0.939D-03 0.271D-01 0.908D-02 0.157D+00
 Coeff-Com:  0.266D+00 0.555D+00
 Coeff-En:   0.000D+00 0.000D+00 0.000D+00 0.000D+00 0.000D+00 0.000D+00
 Coeff-En:   0.000D+00 0.100D+01
 Coeff:      0.185D-02-0.142D-01 0.844D-03 0.243D-01 0.817D-02 0.141D+00
 Coeff:      0.239D+00 0.599D+00
 Gap=     0.148 Goal=   None    Shift=    0.000
 RMSDP=3.05D-04 MaxDP=1.81D-02 DE=-1.88D-01 OVMax= 2.96D-02

 Cycle   9  Pass 1  IDiag  1:
 RMSU=  1.38D-04    CP:  9.40D-01  7.82D-03  6.86D-02  5.57D-01  2.46D-01
                    CP:  9.37D-01  6.30D-01  4.97D-01
 E= -2939.93184542463     Delta-E=       -0.012543942325 Rises=F Damp=F
 DIIS: error= 3.28D-03 at cycle   9 NSaved=   9.
 NSaved= 9 IEnMin= 9 EnMin= -2939.93184542463     IErMin= 9 ErrMin= 3.28D-03
 ErrMax= 3.28D-03 EMaxC= 1.00D-01 BMatC= 2.80D-03 BMatP= 1.70D-02
 IDIUse=3 WtCom= 9.67D-01 WtEn= 3.28D-02
 Coeff-Com: -0.800D-04-0.469D-02 0.192D-03 0.984D-02 0.496D-02-0.219D-02
 Coeff-Com:  0.217D-01 0.309D+00 0.661D+00
 Coeff-En:   0.000D+00 0.000D+00 0.000D+00 0.000D+00 0.000D+00 0.000D+00
 Coeff-En:   0.000D+00 0.113D+00 0.887D+00
 Coeff:     -0.774D-04-0.453D-02 0.185D-03 0.952D-02 0.480D-02-0.212D-02
 Coeff:      0.210D-01 0.303D+00 0.668D+00
 Gap=     0.150 Goal=   None    Shift=    0.000
 RMSDP=1.52D-04 MaxDP=4.04D-03 DE=-1.25D-02 OVMax= 1.45D-02

 Cycle  10  Pass 1  IDiag  1:
 RMSU=  7.20D-05    CP:  9.40D-01  7.82D-03  6.92D-02  5.58D-01  2.49D-01
                    CP:  9.39D-01  6.17D-01  7.16D-01  6.65D-01
 E= -2939.93380622071     Delta-E=       -0.001960796072 Rises=F Damp=F
 DIIS: error= 1.30D-03 at cycle  10 NSaved=  10.
 NSaved=10 IEnMin=10 EnMin= -2939.93380622071     IErMin=10 ErrMin= 1.30D-03
 ErrMax= 1.30D-03 EMaxC= 1.00D-01 BMatC= 6.80D-04 BMatP= 2.80D-03
 IDIUse=3 WtCom= 9.87D-01 WtEn= 1.30D-02
 Coeff-Com:  0.138D-02-0.313D-02-0.920D-04 0.135D-02 0.774D-03-0.250D-01
 Coeff-Com: -0.317D-01 0.753D-01 0.432D+00 0.549D+00
 Coeff-En:   0.000D+00 0.000D+00 0.000D+00 0.000D+00 0.000D+00 0.000D+00
 Coeff-En:   0.000D+00 0.000D+00 0.240D+00 0.760D+00
 Coeff:      0.136D-02-0.309D-02-0.908D-04 0.133D-02 0.764D-03-0.247D-01
 Coeff:     -0.313D-01 0.743D-01 0.429D+00 0.552D+00
 Gap=     0.148 Goal=   None    Shift=    0.000
 RMSDP=6.29D-05 MaxDP=1.93D-03 DE=-1.96D-03 OVMax= 7.64D-03

 Cycle  11  Pass 1  IDiag  1:
 RMSU=  1.92D-05    CP:  9.40D-01  7.60D-03  6.90D-02  5.56D-01  2.49D-01
                    CP:  9.42D-01  6.24D-01  6.73D-01  8.19D-01  5.96D-01
 E= -2939.93454656612     Delta-E=       -0.000740345415 Rises=F Damp=F
 DIIS: error= 3.22D-04 at cycle  11 NSaved=  11.
 NSaved=11 IEnMin=11 EnMin= -2939.93454656612     IErMin=11 ErrMin= 3.22D-04
 ErrMax= 3.22D-04 EMaxC= 1.00D-01 BMatC= 1.92D-05 BMatP= 6.80D-04
 IDIUse=3 WtCom= 9.97D-01 WtEn= 3.22D-03
 Coeff-Com:  0.320D-03-0.644D-03 0.205D-04-0.509D-03 0.222D-03-0.713D-02
 Coeff-Com: -0.712D-02 0.162D-01 0.119D+00 0.213D+00 0.666D+00
 Coeff-En:   0.000D+00 0.000D+00 0.000D+00 0.000D+00 0.000D+00 0.000D+00
 Coeff-En:   0.000D+00 0.000D+00 0.000D+00 0.000D+00 0.100D+01
 Coeff:      0.319D-03-0.642D-03 0.204D-04-0.508D-03 0.222D-03-0.711D-02
 Coeff:     -0.710D-02 0.161D-01 0.119D+00 0.212D+00 0.668D+00
 Gap=     0.148 Goal=   None    Shift=    0.000
 RMSDP=1.06D-05 MaxDP=3.77D-04 DE=-7.40D-04 OVMax= 5.83D-04

 Cycle  12  Pass 1  IDiag  1:
 RMSU=  5.24D-06    CP:  9.40D-01  7.53D-03  6.90D-02  5.56D-01  2.49D-01
                    CP:  9.42D-01  6.26D-01  6.78D-01  8.21D-01  6.23D-01
                    CP:  8.34D-01
 E= -2939.93456210653     Delta-E=       -0.000015540414 Rises=F Damp=F
 DIIS: error= 4.24D-05 at cycle  12 NSaved=  12.
 NSaved=12 IEnMin=12 EnMin= -2939.93456210653     IErMin=12 ErrMin= 4.24D-05
 ErrMax= 4.24D-05 EMaxC= 1.00D-01 BMatC= 1.21D-06 BMatP= 1.92D-05
 IDIUse=1 WtCom= 1.00D+00 WtEn= 0.00D+00
 Coeff-Com:  0.501D-05 0.213D-05 0.156D-04-0.318D-03 0.133D-03-0.166D-02
 Coeff-Com: -0.724D-03 0.251D-02 0.188D-01 0.497D-01 0.260D+00 0.672D+00
 Coeff:      0.501D-05 0.213D-05 0.156D-04-0.318D-03 0.133D-03-0.166D-02
 Coeff:     -0.724D-03 0.251D-02 0.188D-01 0.497D-01 0.260D+00 0.672D+00
 Gap=     0.148 Goal=   None    Shift=    0.000
 RMSDP=3.08D-06 MaxDP=1.15D-04 DE=-1.55D-05 OVMax= 3.60D-04

 Cycle  13  Pass 1  IDiag  1:
 RMSU=  1.71D-06    CP:  9.40D-01  7.53D-03  6.90D-02  5.56D-01  2.49D-01
                    CP:  9.42D-01  6.27D-01  6.80D-01  8.23D-01  6.33D-01
                    CP:  8.63D-01  8.66D-01
 E= -2939.93456336878     Delta-E=       -0.000001262248 Rises=F Damp=F
 DIIS: error= 4.68D-05 at cycle  13 NSaved=  13.
 NSaved=13 IEnMin=13 EnMin= -2939.93456336878     IErMin=12 ErrMin= 4.24D-05
 ErrMax= 4.68D-05 EMaxC= 1.00D-01 BMatC= 2.79D-07 BMatP= 1.21D-06
 IDIUse=1 WtCom= 1.00D+00 WtEn= 0.00D+00
 Coeff-Com: -0.763D-05 0.229D-04 0.276D-05-0.975D-04 0.778D-05 0.305D-03
 Coeff-Com:  0.859D-03 0.120D-03-0.633D-02-0.796D-02-0.734D-02 0.270D+00
 Coeff-Com:  0.750D+00
 Coeff:     -0.763D-05 0.229D-04 0.276D-05-0.975D-04 0.778D-05 0.305D-03
 Coeff:      0.859D-03 0.120D-03-0.633D-02-0.796D-02-0.734D-02 0.270D+00
 Coeff:      0.750D+00
 Gap=     0.148 Goal=   None    Shift=    0.000
 RMSDP=1.28D-06 MaxDP=5.25D-05 DE=-1.26D-06 OVMax= 1.39D-04

 Cycle  14  Pass 1  IDiag  1:
 RMSU=  5.53D-07    CP:  9.40D-01  7.52D-03  6.90D-02  5.56D-01  2.49D-01
                    CP:  9.42D-01  6.27D-01  6.80D-01  8.24D-01  6.34D-01
                    CP:  8.80D-01  9.54D-01  8.79D-01
 E= -2939.93456356765     Delta-E=       -0.000000198870 Rises=F Damp=F
 DIIS: error= 3.88D-05 at cycle  14 NSaved=  14.
 NSaved=14 IEnMin=14 EnMin= -2939.93456356765     IErMin=14 ErrMin= 3.88D-05
 ErrMax= 3.88D-05 EMaxC= 1.00D-01 BMatC= 8.85D-08 BMatP= 2.79D-07
 IDIUse=1 WtCom= 1.00D+00 WtEn= 0.00D+00
 Coeff-Com: -0.149D-04 0.304D-04 0.665D-06-0.426D-04-0.795D-05 0.353D-03
 Coeff-Com:  0.649D-03 0.585D-03-0.346D-02-0.766D-02-0.327D-01 0.798D-01
 Coeff-Com:  0.374D+00 0.589D+00
 Coeff:     -0.149D-04 0.304D-04 0.665D-06-0.426D-04-0.795D-05 0.353D-03
 Coeff:      0.649D-03 0.585D-03-0.346D-02-0.766D-02-0.327D-01 0.798D-01
 Coeff:      0.374D+00 0.589D+00
 Gap=     0.148 Goal=   None    Shift=    0.000
 RMSDP=3.95D-07 MaxDP=1.55D-05 DE=-1.99D-07 OVMax= 4.51D-05

 Cycle  15  Pass 1  IDiag  1:
 RMSU=  1.70D-07    CP:  9.40D-01  7.52D-03  6.90D-02  5.56D-01  2.49D-01
                    CP:  9.42D-01  6.27D-01  6.80D-01  8.24D-01  6.35D-01
                    CP:  8.81D-01  9.70D-01  9.45D-01  7.72D-01
 E= -2939.93456360432     Delta-E=       -0.000000036666 Rises=F Damp=F
 DIIS: error= 2.65D-05 at cycle  15 NSaved=  15.
 NSaved=15 IEnMin=15 EnMin= -2939.93456360432     IErMin=15 ErrMin= 2.65D-05
 ErrMax= 2.65D-05 EMaxC= 1.00D-01 BMatC= 3.35D-08 BMatP= 8.85D-08
 IDIUse=1 WtCom= 1.00D+00 WtEn= 0.00D+00
 Coeff-Com: -0.827D-05 0.140D-04 0.724D-07-0.139D-04-0.843D-05 0.125D-03
 Coeff-Com:  0.215D-03 0.916D-03 0.146D-02-0.508D-04-0.126D-01-0.215D-01
 Coeff-Com: -0.334D-01 0.125D+00 0.940D+00
 Coeff:     -0.827D-05 0.140D-04 0.724D-07-0.139D-04-0.843D-05 0.125D-03
 Coeff:      0.215D-03 0.916D-03 0.146D-02-0.508D-04-0.126D-01-0.215D-01
 Coeff:     -0.334D-01 0.125D+00 0.940D+00
 Gap=     0.148 Goal=   None    Shift=    0.000
 RMSDP=1.90D-07 MaxDP=1.32D-05 DE=-3.67D-08 OVMax= 2.55D-05

 Cycle  16  Pass 1  IDiag  1:
 RMSU=  6.98D-08    CP:  9.40D-01  7.52D-03  6.90D-02  5.56D-01  2.49D-01
                    CP:  9.42D-01  6.27D-01  6.80D-01  8.24D-01  6.34D-01
                    CP:  8.80D-01  9.83D-01  9.64D-01  8.38D-01  9.17D-01
 E= -2939.93456361638     Delta-E=       -0.000000012063 Rises=F Damp=F
 DIIS: error= 7.85D-06 at cycle  16 NSaved=  16.
 NSaved=16 IEnMin=16 EnMin= -2939.93456361638     IErMin=16 ErrMin= 7.85D-06
 ErrMax= 7.85D-06 EMaxC= 1.00D-01 BMatC= 3.42D-09 BMatP= 3.35D-08
 IDIUse=1 WtCom= 1.00D+00 WtEn= 0.00D+00
 Coeff-Com: -0.449D-05 0.799D-05-0.237D-07-0.373D-05-0.205D-05-0.145D-04
 Coeff-Com: -0.320D-05 0.464D-03 0.158D-02 0.156D-02-0.724D-04-0.218D-01
 Coeff-Com: -0.852D-01-0.681D-01 0.350D+00 0.821D+00
 Coeff:     -0.449D-05 0.799D-05-0.237D-07-0.373D-05-0.205D-05-0.145D-04
 Coeff:     -0.320D-05 0.464D-03 0.158D-02 0.156D-02-0.724D-04-0.218D-01
 Coeff:     -0.852D-01-0.681D-01 0.350D+00 0.821D+00
 Gap=     0.148 Goal=   None    Shift=    0.000
 RMSDP=7.43D-08 MaxDP=4.76D-06 DE=-1.21D-08 OVMax= 7.42D-06

 Cycle  17  Pass 1  IDiag  1:
 RMSU=  3.12D-08    CP:  9.40D-01  7.52D-03  6.90D-02  5.56D-01  2.49D-01
                    CP:  9.42D-01  6.27D-01  6.80D-01  8.24D-01  6.34D-01
                    CP:  8.81D-01  9.86D-01  9.72D-01  8.73D-01  1.02D+00
                    CP:  8.48D-01
 E= -2939.93456361772     Delta-E=       -0.000000001343 Rises=F Damp=F
 DIIS: error= 3.99D-06 at cycle  17 NSaved=  17.
 NSaved=17 IEnMin=17 EnMin= -2939.93456361772     IErMin=17 ErrMin= 3.99D-06
 ErrMax= 3.99D-06 EMaxC= 1.00D-01 BMatC= 8.44D-10 BMatP= 3.42D-09
 IDIUse=1 WtCom= 1.00D+00 WtEn= 0.00D+00
 Coeff-Com: -0.134D-05 0.234D-05 0.337D-07-0.162D-05-0.175D-07-0.159D-04
 Coeff-Com: -0.123D-04 0.142D-03 0.576D-03 0.742D-03 0.155D-02-0.629D-02
 Coeff-Com: -0.302D-01-0.495D-01-0.246D-01 0.388D+00 0.720D+00
 Coeff:     -0.134D-05 0.234D-05 0.337D-07-0.162D-05-0.175D-07-0.159D-04
 Coeff:     -0.123D-04 0.142D-03 0.576D-03 0.742D-03 0.155D-02-0.629D-02
 Coeff:     -0.302D-01-0.495D-01-0.246D-01 0.388D+00 0.720D+00
 Gap=     0.148 Goal=   None    Shift=    0.000
 RMSDP=3.09D-08 MaxDP=1.94D-06 DE=-1.34D-09 OVMax= 3.22D-06

 Cycle  18  Pass 1  IDiag  1:
 RMSU=  1.29D-08    CP:  9.40D-01  7.52D-03  6.90D-02  5.56D-01  2.49D-01
                    CP:  9.42D-01  6.27D-01  6.81D-01  8.24D-01  6.34D-01
                    CP:  8.81D-01  9.87D-01  9.73D-01  8.78D-01  1.04D+00
                    CP:  9.58D-01  8.84D-01
 E= -2939.93456361800     Delta-E=       -0.000000000280 Rises=F Damp=F
 DIIS: error= 9.83D-07 at cycle  18 NSaved=  18.
 NSaved=18 IEnMin=18 EnMin= -2939.93456361800     IErMin=18 ErrMin= 9.83D-07
 ErrMax= 9.83D-07 EMaxC= 1.00D-01 BMatC= 5.36D-11 BMatP= 8.44D-10
 IDIUse=1 WtCom= 1.00D+00 WtEn= 0.00D+00
 Coeff-Com:  0.152D-06-0.380D-06 0.385D-07-0.650D-06 0.545D-07-0.238D-05
 Coeff-Com: -0.169D-05 0.174D-04 0.713D-04 0.111D-03 0.462D-03-0.594D-03
 Coeff-Com: -0.229D-02-0.117D-01-0.551D-01 0.667D-01 0.229D+00 0.774D+00
 Coeff:      0.152D-06-0.380D-06 0.385D-07-0.650D-06 0.545D-07-0.238D-05
 Coeff:     -0.169D-05 0.174D-04 0.713D-04 0.111D-03 0.462D-03-0.594D-03
 Coeff:     -0.229D-02-0.117D-01-0.551D-01 0.667D-01 0.229D+00 0.774D+00
 Gap=     0.148 Goal=   None    Shift=    0.000
 RMSDP=1.03D-08 MaxDP=8.04D-07 DE=-2.80D-10 OVMax= 9.80D-07

 Cycle  19  Pass 1  IDiag  1:
 RMSU=  4.32D-09    CP:  9.40D-01  7.52D-03  6.90D-02  5.56D-01  2.49D-01
                    CP:  9.42D-01  6.27D-01  6.81D-01  8.24D-01  6.34D-01
                    CP:  8.81D-01  9.87D-01  9.73D-01  8.77D-01  1.04D+00
                    CP:  9.83D-01  9.47D-01  9.53D-01
 E= -2939.93456361805     Delta-E=       -0.000000000050 Rises=F Damp=F
 DIIS: error= 1.86D-07 at cycle  19 NSaved=  19.
 NSaved=19 IEnMin=19 EnMin= -2939.93456361805     IErMin=19 ErrMin= 1.86D-07
 ErrMax= 1.86D-07 EMaxC= 1.00D-01 BMatC= 3.92D-12 BMatP= 5.36D-11
 IDIUse=1 WtCom= 1.00D+00 WtEn= 0.00D+00
 Coeff-Com:  0.110D-06-0.199D-06 0.204D-07-0.412D-06 0.103D-06 0.107D-05
 Coeff-Com:  0.169D-05 0.126D-06-0.200D-04-0.427D-04-0.987D-04 0.127D-03
 Coeff-Com:  0.179D-02 0.104D-02-0.141D-01 0.659D-02 0.242D-01 0.340D+00
 Coeff-Com:  0.640D+00
 Coeff:      0.110D-06-0.199D-06 0.204D-07-0.412D-06 0.103D-06 0.107D-05
 Coeff:      0.169D-05 0.126D-06-0.200D-04-0.427D-04-0.987D-04 0.127D-03
 Coeff:      0.179D-02 0.104D-02-0.141D-01 0.659D-02 0.242D-01 0.340D+00
 Coeff:      0.640D+00
 Gap=     0.148 Goal=   None    Shift=    0.000
 RMSDP=3.53D-09 MaxDP=1.49D-07 DE=-5.00D-11 OVMax= 3.29D-07

 SCF Done:  E(RM06) =  -2939.93456362     A.U. after   19 cycles
             Convg  =    0.3533D-08             -V/T =  2.0034
 KE= 2.929958288563D+03 PE=-1.493992870508D+04 EE= 5.058800843371D+03
 Leave Link  502 at Wed Oct 17 15:40:39 2012, MaxMem=  655360000 cpu:    1176.1
 (Enter /software/g09-B.01/g09/l801.exe)
 Range of M.O.s used for correlation:     1   529
 NBasis=   529 NAE=   124 NBE=   124 NFC=     0 NFV=     0
 NROrb=    529 NOA=   124 NOB=   124 NVA=   405 NVB=   405
 Leave Link  801 at Wed Oct 17 15:40:39 2012, MaxMem=  655360000 cpu:       0.3
 (Enter /software/g09-B.01/g09/l1101.exe)
 Using compressed storage, NAtomX=    57.
 Will process  58 centers per pass.
 Leave Link 1101 at Wed Oct 17 15:40:41 2012, MaxMem=  655360000 cpu:      22.9
 (Enter /software/g09-B.01/g09/l1102.exe)
 Symmetrizing basis deriv contribution to polar:
 IMax=3 JMax=2 DiffMx= 0.00D+00
 Leave Link 1102 at Wed Oct 17 15:40:42 2012, MaxMem=  655360000 cpu:       1.3
 (Enter /software/g09-B.01/g09/l1110.exe)
 Forming Gx(P) for the SCF density, NAtomX=    57.
 Integral derivatives from FoFDir/FoFCou, PRISM(SPDF).
 Do as many integral derivatives as possible in FoFDir.
 G2DrvN: MDV=     655359440.
 G2DrvN: will do    58 centers at a time, making    1 passes doing MaxLOS=2.
 Calling FoFCou, ICntrl=  3107 FMM=F I1Cent=   0 AccDes= 0.00D+00.
 FoFCou: FMM=F IPFlag=           0 FMFlag=      100000 FMFlg1=        2000
         NFxFlg=           0 DoJE=F BraDBF=F KetDBF=F FulRan=T
         Omega=  0.000000  0.000000  1.000000  0.000000  0.000000 ICntrl=    3107 IOpCl=  0
         NMat0=    1 NMatS0=    1 NMatT0=    0 NMatD0=    1 NMtDS0=    0 NMtDT0=    0
         I1Cent=           0 NGrid=           0.
 Petite list used in FoFCou.
 FoFDir/FoFCou used for L=0 through L=2.
 End of G2Drv Frequency-dependent properties file   721 does not exist.
 End of G2Drv Frequency-dependent properties file   722 does not exist.
 Leave Link 1110 at Wed Oct 17 15:44:05 2012, MaxMem=  655360000 cpu:    2415.9
 (Enter /software/g09-B.01/g09/l1002.exe)
 Minotr:  Closed shell wavefunction.
          IDoAtm=11111111111111111111111111111111111111111111111111
          IDoAtm=1111111
          Direct CPHF calculation.
          Differentiating once with respect to electric field.
                with respect to dipole field.
          Differentiating once with respect to nuclear coordinates.
          Using symmetry in CPHF.
          Requested convergence is 1.0D-08 RMS, and 1.0D-07 maximum.
          Secondary convergence is 1.0D-12 RMS, and 1.0D-12 maximum.
          NewPWx=T KeepS1=F KeepF1=F KeepIn=T MapXYZ=F SortEE=F KeepMc=T.
          MDV=     655359426 using IRadAn=       2.
 Generate precomputed XC quadrature information.
          Solving linear equations simultaneously, MaxMat=      72.
 FoFCou: FMM=T IPFlag=           0 FMFlag=      100000 FMFlg1=        2001
         NFxFlg=           0 DoJE=F BraDBF=F KetDBF=F FulRan=T
         Omega=  0.000000  0.000000  1.000000  0.000000  0.000000 ICntrl=       0 IOpCl=  0
         NMat0=   48 NMatS0=   48 NMatT0=    0 NMatD0=   48 NMtDS0=    0 NMtDT0=    0
         I1Cent=           0 NGrid=           0.
 Symmetry not used in FoFCou.
 FMM levels:  10  Number of levels for PrismC:   9
          There are    48 degrees of freedom in the 1st order CPHF.  IDoFFX=4.
     48 vectors produced by pass  0 Test12= 1.05D-13 2.08D-09 XBig12= 5.61D+02 8.85D+00.
 AX will form    48 AO Fock derivatives at one time.
     48 vectors produced by pass  1 Test12= 1.05D-13 2.08D-09 XBig12= 1.86D+02 3.40D+00.
     48 vectors produced by pass  2 Test12= 1.05D-13 2.08D-09 XBig12= 2.54D+01 1.35D+00.
     48 vectors produced by pass  3 Test12= 1.05D-13 2.08D-09 XBig12= 2.76D+00 3.63D-01.
     48 vectors produced by pass  4 Test12= 1.05D-13 2.08D-09 XBig12= 3.37D-01 8.30D-02.
     48 vectors produced by pass  5 Test12= 1.05D-13 2.08D-09 XBig12= 1.02D-02 1.27D-02.
     48 vectors produced by pass  6 Test12= 1.05D-13 2.08D-09 XBig12= 2.78D-04 1.57D-03.
     47 vectors produced by pass  7 Test12= 1.05D-13 2.08D-09 XBig12= 9.59D-06 4.14D-04.
     20 vectors produced by pass  8 Test12= 1.05D-13 2.08D-09 XBig12= 1.45D-07 3.31D-05.
      5 vectors produced by pass  9 Test12= 1.05D-13 2.08D-09 XBig12= 1.44D-09 3.32D-06.
      3 vectors produced by pass 10 Test12= 1.05D-13 2.08D-09 XBig12= 1.71D-11 4.62D-07.
      2 vectors produced by pass 11 Test12= 1.05D-13 2.08D-09 XBig12= 2.38D-13 5.65D-08.
      1 vectors produced by pass 12 Test12= 1.05D-13 2.08D-09 XBig12= 4.59D-15 6.57D-09.
 Inverted reduced A of dimension   414 with in-core refinement.
 FullF1:  Do perturbations    1 to    48.
 Isotropic polarizability for W=    0.000000      355.89 Bohr**3.
 End of Minotr Frequency-dependent properties file   721 does not exist.
 End of Minotr Frequency-dependent properties file   722 does not exist.
 Leave Link 1002 at Wed Oct 17 16:03:17 2012, MaxMem=  655360000 cpu:   13716.1
 (Enter /software/g09-B.01/g09/l601.exe)
 Copying SCF densities to generalized density rwf, IOpCl= 0 IROHF=0.

 **********************************************************************

            Population analysis using the SCF density.

 **********************************************************************

 Orbital symmetries:
       Occupied  (A) (A) (B1) (B3) (B2) (B2) (B1) (B3) (A) (A)
                 (B2) (B1) (B3) (A) (B3) (B2) (B1) (B2) (B1) (A)
                 (B3) (B2) (B1) (A) (B3) (B2) (A) (B1) (B3) (A)
                 (B3) (B1) (B2) (B3) (A) (B2) (B1) (A) (B3) (B1)
                 (B2) (A) (B3) (B2) (B1) (A) (B3) (A) (B2) (B1)
                 (B3) (B2) (B1) (A) (B3) (B2) (B1) (B3) (A) (A)
                 (B3) (A) (B3) (B1) (B2) (B2) (B1) (B1) (B2) (A)
                 (B3) (A) (B3) (A) (B3) (B2) (B1) (B1) (B2) (B2)
                 (B1) (A) (A) (B3) (A) (B3) (B3) (A) (B3) (B1)
                 (B2) (B2) (B1) (B1) (B2) (B3) (B2) (B1) (A) (B3)
                 (B1) (B2) (A) (A) (B3) (B2) (B1) (A) (B1) (B2)
                 (B3) (A) (B1) (B3) (B2) (A) (B3) (A) (B1) (B2)
                 (A) (B3) (B2) (B1)
       Virtual   (B2) (B1) (A) (B3) (B1) (B2) (A) (B3) (A) (A)
                 (B3) (B2) (B1) (A) (B3) (B2) (B1) (A) (B3) (B2)
                 (B1) (A) (B3) (B2) (B1) (A) (A) (B2) (B1) (B3)
                 (A) (B3) (B2) (B1) (B2) (B3) (B1) (A) (A) (B3)
                 (B1) (B2) (B3) (A) (B1) (B2) (B3) (A) (B1) (B2)
                 (B3) (B3) (A) (A) (B1) (B2) (B3) (B1) (B2) (A)
                 (B3) (A) (B1) (B2) (B3) (B1) (B2) (B3) (A) (B1)
                 (B2) (B1) (B2) (A) (B2) (B1) (B3) (B2) (B1) (A)
                 (A) (B3) (B3) (B2) (B1) (A) (A) (B2) (B1) (B3)
                 (B3) (B3) (B1) (B2) (A) (B1) (B2) (A) (B2) (B1)
                 (B2) (B1) (B3) (A) (B3) (B3) (A) (A) (A) (B3)
                 (A) (B2) (B1) (B3) (B1) (B2) (B1) (B2) (B3) (B2)
                 (B3) (B1) (B1) (B2) (A) (B2) (B1) (A) (B1) (A)
                 (B2) (B3) (B3) (A) (B3) (B3) (A) (B2) (B1) (A)
                 (B3) (B2) (B1) (B1) (B2) (A) (B3) (B3) (A) (B3)
                 (B1) (B2) (A) (B2) (B1) (B3) (A) (B1) (B2) (A)
                 (B3) (B2) (B1) (B1) (B2) (A) (B3) (A) (B2) (B1)
                 (B3) (B2) (B1) (A) (B3) (A) (B2) (B1) (B3) (B3)
                 (B2) (B1) (B3) (B2) (B1) (A) (B2) (B1) (A) (B3)
                 (B3) (A) (A) (B1) (B3) (B2) (A) (B2) (B1) (A)
                 (B3) (B1) (B2) (B2) (B1) (A) (B1) (B2) (A) (B3)
                 (B3) (B2) (B1) (A) (B2) (B1) (B1) (B2) (B3) (A)
                 (B3) (B1) (B2) (A) (B3) (A) (B2) (B1) (B1) (B2)
                 (A) (B3) (B1) (B2) (B1) (B2) (B3) (A) (B3) (B3)
                 (A) (A) (B3) (B1) (B2) (B1) (B2) (A) (B3) (B2)
                 (B1) (A) (B1) (B2) (A) (B3) (B3) (B1) (B2) (A)
                 (A) (B3) (A) (B3) (B2) (B1) (B2) (A) (B1) (B3)
                 (B1) (B2) (A) (B3) (B3) (A) (B3) (B2) (B1) (A)
                 (B1) (B2) (A) (B3) (B1) (B2) (A) (B3) (B1) (B2)
                 (B2) (B1) (A) (B3) (A) (B3) (A) (B1) (B2) (B2)
                 (B1) (B3) (B3) (B2) (B1) (A) (B3) (B2) (B1) (A)
                 (B1) (B2) (A) (B3) (A) (B3) (B2) (B1) (B1) (B2)
                 (B3) (A) (B3) (A) (A) (B3) (B2) (B1) (B2) (B1)
                 (B3) (A) (A) (B3) (B3) (B1) (B2) (B3) (A) (A)
                 (B1) (B2) (B2) (B1) (B1) (B2) (A) (B3) (B1) (B2)
                 (B3) (B1) (B2) (A) (B3) (A) (B1) (B2) (B1) (B2)
                 (A) (B3) (B1) (B2) (B3) (A) (B3) (A) (B1) (B2)
                 (B3) (A) (B3) (B1) (B2) (A) (B3) (B1) (B2) (A)
                 (A) (B3) (B2) (B1) (B2) (B1) (B3) (B1) (B2) (A)
                 (B2) (B1) (B3) (A) (B3) (B2) (B1) (B2) (B1) (A)
                 (A) (B2) (B1) (B3) (A)
 The electronic state is 1-A.
 Alpha  occ. eigenvalues -- -323.32737 -39.09141 -34.20478 -34.20471 -34.20468
 Alpha  occ. eigenvalues --  -14.52927 -14.52927 -14.52924 -14.52923 -10.41009
 Alpha  occ. eigenvalues --  -10.41009 -10.41009 -10.41008 -10.40146 -10.40143
 Alpha  occ. eigenvalues --  -10.40114 -10.40114 -10.37592 -10.37592 -10.37592
 Alpha  occ. eigenvalues --  -10.37591 -10.37480 -10.37480 -10.37479 -10.37479
 Alpha  occ. eigenvalues --  -10.36367 -10.36367 -10.36367 -10.36367 -10.36184
 Alpha  occ. eigenvalues --  -10.36184 -10.36124 -10.36124 -10.34330 -10.34329
 Alpha  occ. eigenvalues --  -10.34329 -10.34329  -4.44566  -2.90152  -2.90025
 Alpha  occ. eigenvalues --   -2.90011  -1.09218  -1.09097  -1.06703  -1.06700
 Alpha  occ. eigenvalues --   -0.97279  -0.97232  -0.93005  -0.92997  -0.92996
 Alpha  occ. eigenvalues --   -0.92992  -0.88977  -0.88975  -0.87736  -0.87685
 Alpha  occ. eigenvalues --   -0.82368  -0.82361  -0.82173  -0.82172  -0.77120
 Alpha  occ. eigenvalues --   -0.77078  -0.74143  -0.73888  -0.73171  -0.73170
 Alpha  occ. eigenvalues --   -0.72476  -0.72469  -0.66937  -0.66936  -0.64751
 Alpha  occ. eigenvalues --   -0.64593  -0.62939  -0.62928  -0.59742  -0.59681
 Alpha  occ. eigenvalues --   -0.59471  -0.59464  -0.58070  -0.58069  -0.56589
 Alpha  occ. eigenvalues --   -0.56562  -0.55199  -0.55143  -0.55122  -0.54602
 Alpha  occ. eigenvalues --   -0.54150  -0.53790  -0.52981  -0.52721  -0.52503
 Alpha  occ. eigenvalues --   -0.52501  -0.51745  -0.51670  -0.51333  -0.51331
 Alpha  occ. eigenvalues --   -0.49559  -0.49538  -0.49534  -0.49519  -0.48764
 Alpha  occ. eigenvalues --   -0.48565  -0.48561  -0.48512  -0.47315  -0.47104
 Alpha  occ. eigenvalues --   -0.45290  -0.45288  -0.44309  -0.42548  -0.42512
 Alpha  occ. eigenvalues --   -0.42203  -0.41630  -0.41379  -0.41378  -0.41372
 Alpha  occ. eigenvalues --   -0.36043  -0.35763  -0.34682  -0.34386  -0.34382
 Alpha  occ. eigenvalues --   -0.34209  -0.33620  -0.30866  -0.30728
 Alpha virt. eigenvalues --   -0.15961  -0.15959  -0.15222  -0.15148  -0.10755
 Alpha virt. eigenvalues --   -0.10700  -0.07959  -0.07894  -0.05607  -0.03351
 Alpha virt. eigenvalues --   -0.03264   0.00249   0.00308   0.00440   0.00732
 Alpha virt. eigenvalues --    0.02064   0.02109   0.02398   0.03459   0.03629
 Alpha virt. eigenvalues --    0.03703   0.04776   0.05358   0.05762   0.05832
 Alpha virt. eigenvalues --    0.06176   0.06839   0.08244   0.08258   0.08446
 Alpha virt. eigenvalues --    0.08571   0.08902   0.09632   0.09671   0.10064
 Alpha virt. eigenvalues --    0.10113   0.10573   0.11266   0.11970   0.12101
 Alpha virt. eigenvalues --    0.12476   0.12487   0.13312   0.13995   0.15696
 Alpha virt. eigenvalues --    0.15698   0.16029   0.16445   0.16996   0.17003
 Alpha virt. eigenvalues --    0.18293   0.19277   0.19773   0.20074   0.21127
 Alpha virt. eigenvalues --    0.21142   0.21965   0.22144   0.22202   0.23518
 Alpha virt. eigenvalues --    0.24526   0.25410   0.26219   0.26345   0.28307
 Alpha virt. eigenvalues --    0.28495   0.28518   0.32802   0.34960   0.35054
 Alpha virt. eigenvalues --    0.35156   0.38055   0.38063   0.38502   0.39386
 Alpha virt. eigenvalues --    0.39407   0.39427   0.39974   0.40014   0.40776
 Alpha virt. eigenvalues --    0.40933   0.41400   0.41791   0.43032   0.43116
 Alpha virt. eigenvalues --    0.44109   0.44655   0.44802   0.44838   0.45377
 Alpha virt. eigenvalues --    0.45410   0.46077   0.47264   0.47301   0.48235
 Alpha virt. eigenvalues --    0.48703   0.48715   0.48725   0.48923   0.48993
 Alpha virt. eigenvalues --    0.49116   0.49129   0.49596   0.49828   0.50615
 Alpha virt. eigenvalues --    0.50957   0.51086   0.51636   0.51720   0.51769
 Alpha virt. eigenvalues --    0.52096   0.52455   0.52535   0.54566   0.54577
 Alpha virt. eigenvalues --    0.54921   0.55234   0.55288   0.56963   0.57496
 Alpha virt. eigenvalues --    0.57564   0.57614   0.59412   0.59426   0.59898
 Alpha virt. eigenvalues --    0.60588   0.60615   0.61081   0.62496   0.62589
 Alpha virt. eigenvalues --    0.62773   0.63321   0.63385   0.63734   0.64123
 Alpha virt. eigenvalues --    0.64587   0.66029   0.67185   0.67418   0.69295
 Alpha virt. eigenvalues --    0.69497   0.69572   0.69582   0.70464   0.70498
 Alpha virt. eigenvalues --    0.72642   0.72736   0.72813   0.73094   0.73368
 Alpha virt. eigenvalues --    0.73887   0.74037   0.74053   0.77321   0.77539
 Alpha virt. eigenvalues --    0.78316   0.79040   0.79079   0.79123   0.79821
 Alpha virt. eigenvalues --    0.80299   0.80327   0.80530   0.81290   0.81396
 Alpha virt. eigenvalues --    0.82115   0.82250   0.82293   0.83520   0.83762
 Alpha virt. eigenvalues --    0.85291   0.85299   0.85485   0.85622   0.86413
 Alpha virt. eigenvalues --    0.87172   0.88300   0.88327   0.89170   0.91182
 Alpha virt. eigenvalues --    0.93373   0.93410   0.93718   0.94959   0.95089
 Alpha virt. eigenvalues --    0.95352   0.97009   0.97201   0.98676   1.01120
 Alpha virt. eigenvalues --    1.01296   1.02089   1.02430   1.02574   1.02651
 Alpha virt. eigenvalues --    1.02714   1.02986   1.06656   1.06751   1.08034
 Alpha virt. eigenvalues --    1.11034   1.11318   1.11347   1.11730   1.11852
 Alpha virt. eigenvalues --    1.12579   1.13356   1.13372   1.14827   1.14926
 Alpha virt. eigenvalues --    1.17655   1.19120   1.19132   1.24883   1.24913
 Alpha virt. eigenvalues --    1.24916   1.26099   1.26114   1.26284   1.26459
 Alpha virt. eigenvalues --    1.26894   1.27127   1.27144   1.29507   1.29612
 Alpha virt. eigenvalues --    1.33142   1.33376   1.33436   1.34207   1.34256
 Alpha virt. eigenvalues --    1.35694   1.35792   1.36165   1.36172   1.37453
 Alpha virt. eigenvalues --    1.37470   1.38040   1.38617   1.38849   1.39976
 Alpha virt. eigenvalues --    1.40747   1.44365   1.44729   1.46126   1.46359
 Alpha virt. eigenvalues --    1.48965   1.48975   1.49051   1.49772   1.51230
 Alpha virt. eigenvalues --    1.51394   1.51566   1.55057   1.55171   1.60953
 Alpha virt. eigenvalues --    1.62521   1.63700   1.64693   1.64726   1.64792
 Alpha virt. eigenvalues --    1.66624   1.67169   1.67765   1.68313   1.70682
 Alpha virt. eigenvalues --    1.70704   1.71883   1.71949   1.71961   1.72599
 Alpha virt. eigenvalues --    1.74760   1.74799   1.76119   1.76506   1.77175
 Alpha virt. eigenvalues --    1.78101   1.79376   1.79400   1.79491   1.79685
 Alpha virt. eigenvalues --    1.80614   1.80724   1.81726   1.82193   1.83136
 Alpha virt. eigenvalues --    1.83527   1.84322   1.84335   1.85154   1.85227
 Alpha virt. eigenvalues --    1.86517   1.86604   1.88651   1.88925   1.89036
 Alpha virt. eigenvalues --    1.91835   1.93027   1.94034   1.94082   1.98357
 Alpha virt. eigenvalues --    1.98442   1.99376   2.00594   2.00944   2.00986
 Alpha virt. eigenvalues --    2.01492   2.01822   2.02525   2.02655   2.02995
 Alpha virt. eigenvalues --    2.05682   2.05704   2.08462   2.09712   2.10141
 Alpha virt. eigenvalues --    2.10425   2.12824   2.12948   2.14163   2.14424
 Alpha virt. eigenvalues --    2.15032   2.15106   2.16455   2.16536   2.16881
 Alpha virt. eigenvalues --    2.17473   2.18425   2.18429   2.19770   2.19825
 Alpha virt. eigenvalues --    2.19916   2.20154   2.20302   2.20804   2.22830
 Alpha virt. eigenvalues --    2.23220   2.23306   2.23365   2.23428   2.23457
 Alpha virt. eigenvalues --    2.26558   2.26666   2.27550   2.27552   2.31382
 Alpha virt. eigenvalues --    2.31441   2.32500   2.33527   2.38710   2.38795
 Alpha virt. eigenvalues --    2.42913   2.44822   2.45848   2.46196   2.50324
 Alpha virt. eigenvalues --    2.50333   2.51852   2.51905   2.52768   2.52773
 Alpha virt. eigenvalues --    2.55171   2.55385   2.56782   2.56826   2.57445
 Alpha virt. eigenvalues --    2.60908   2.60926   2.61080   2.65529   2.65597
 Alpha virt. eigenvalues --    2.67005   2.67806   2.67966   2.69731   2.69740
 Alpha virt. eigenvalues --    2.70510   2.71395   2.74094   2.74143   2.76809
 Alpha virt. eigenvalues --    2.78417   2.79381   2.80313   2.80334   2.85771
 Alpha virt. eigenvalues --    2.85771   2.88327   2.91629   2.91700   2.96814
 Alpha virt. eigenvalues --    3.00272   3.00308   3.01648   3.23441   3.23580
 Alpha virt. eigenvalues --    3.32926   3.32945   3.41492   3.41505   3.47064
 Alpha virt. eigenvalues --    3.67536   3.90313   3.91048   3.95564   4.13122
          Condensed to atoms (all electrons):
 Mulliken atomic charges:
              1
     1  Cu   0.296126
     2  N   -0.510509
     3  N   -0.510509
     4  C   -0.170657
     5  C   -0.170657
     6  C    0.220738
     7  C    0.220738
     8  C    0.304714
     9  C    0.304714
    10  C    0.144014
    11  C    0.144014
    12  C   -0.215834
    13  C   -0.215834
    14  H    0.201914
    15  H    0.201914
    16  H    0.195430
    17  H    0.195430
    18  C   -0.209869
    19  C   -0.209869
    20  H    0.193055
    21  H    0.193055
    22  C   -0.578909
    23  C   -0.578909
    24  H    0.202763
    25  H    0.202763
    26  H    0.196884
    27  H    0.196884
    28  H    0.202236
    29  H    0.202236
    30  N   -0.510509
    31  N   -0.510509
    32  C   -0.170657
    33  C   -0.170657
    34  C    0.220738
    35  C    0.220738
    36  C    0.304714
    37  C    0.304714
    38  C    0.144014
    39  C    0.144014
    40  C   -0.215834
    41  C   -0.215834
    42  H    0.201914
    43  H    0.201914
    44  H    0.195430
    45  H    0.195430
    46  C   -0.209869
    47  C   -0.209869
    48  H    0.193055
    49  H    0.193055
    50  C   -0.578909
    51  C   -0.578909
    52  H    0.202763
    53  H    0.202763
    54  H    0.196884
    55  H    0.196884
    56  H    0.202236
    57  H    0.202236
 Sum of Mulliken atomic charges =   1.00000
 Mulliken charges with hydrogens summed into heavy atoms:
              1
     1  Cu   0.296126
     2  N   -0.510509
     3  N   -0.510509
     4  C    0.031256
     5  C    0.031256
     6  C    0.220738
     7  C    0.220738
     8  C    0.304714
     9  C    0.304714
    10  C    0.144014
    11  C    0.144014
    12  C   -0.020404
    13  C   -0.020404
    18  C   -0.016814
    19  C   -0.016814
    22  C    0.022975
    23  C    0.022975
    30  N   -0.510509
    31  N   -0.510509
    32  C    0.031256
    33  C    0.031256
    34  C    0.220738
    35  C    0.220738
    36  C    0.304714
    37  C    0.304714
    38  C    0.144014
    39  C    0.144014
    40  C   -0.020404
    41  C   -0.020404
    46  C   -0.016814
    47  C   -0.016814
    50  C    0.022975
    51  C    0.022975
 Sum of Mulliken charges with hydrogens summed into heavy atoms =   1.00000
 APT atomic charges:
              1
     1  Cu   0.488377
     2  N   -0.379487
     3  N   -0.379487
     4  C    0.154867
     5  C    0.154867
     6  C    0.141891
     7  C    0.141891
     8  C    0.282523
     9  C    0.282523
    10  C   -0.079443
    11  C   -0.079443
    12  C   -0.129359
    13  C   -0.129359
    14  H    0.046744
    15  H    0.046744
    16  H    0.045879
    17  H    0.045879
    18  C   -0.008705
    19  C   -0.008705
    20  H    0.038420
    21  H    0.038420
    22  C   -0.013105
    23  C   -0.013105
    24  H    0.010437
    25  H    0.010437
    26  H    0.009483
    27  H    0.009483
    28  H    0.007761
    29  H    0.007760
    30  N   -0.379487
    31  N   -0.379487
    32  C    0.154867
    33  C    0.154867
    34  C    0.141891
    35  C    0.141891
    36  C    0.282522
    37  C    0.282523
    38  C   -0.079443
    39  C   -0.079443
    40  C   -0.129359
    41  C   -0.129359
    42  H    0.046744
    43  H    0.046744
    44  H    0.045879
    45  H    0.045879
    46  C   -0.008705
    47  C   -0.008705
    48  H    0.038420
    49  H    0.038420
    50  C   -0.013105
    51  C   -0.013105
    52  H    0.010437
    53  H    0.010437
    54  H    0.009483
    55  H    0.009483
    56  H    0.007761
    57  H    0.007761
 Sum of APT charges=   1.00000
 APT Atomic charges with hydrogens summed into heavy atoms:
              1
     1  Cu   0.488377
     2  N   -0.379487
     3  N   -0.379487
     4  C    0.201611
     5  C    0.201611
     6  C    0.141891
     7  C    0.141891
     8  C    0.282523
     9  C    0.282523
    10  C   -0.079443
    11  C   -0.079443
    12  C   -0.083480
    13  C   -0.083480
    14  H    0.000000
    15  H    0.000000
    16  H    0.000000
    17  H    0.000000
    18  C    0.029716
    19  C    0.029716
    20  H    0.000000
    21  H    0.000000
    22  C    0.014576
    23  C    0.014576
    24  H    0.000000
    25  H    0.000000
    26  H    0.000000
    27  H    0.000000
    28  H    0.000000
    29  H    0.000000
    30  N   -0.379487
    31  N   -0.379487
    32  C    0.201611
    33  C    0.201611
    34  C    0.141891
    35  C    0.141891
    36  C    0.282522
    37  C    0.282523
    38  C   -0.079443
    39  C   -0.079443
    40  C   -0.083480
    41  C   -0.083480
    42  H    0.000000
    43  H    0.000000
    44  H    0.000000
    45  H    0.000000
    46  C    0.029716
    47  C    0.029716
    48  H    0.000000
    49  H    0.000000
    50  C    0.014576
    51  C    0.014576
    52  H    0.000000
    53  H    0.000000
    54  H    0.000000
    55  H    0.000000
    56  H    0.000000
    57  H    0.000000
 Sum of APT charges=   1.00000
 Electronic spatial extent (au):  <R**2>=          12818.0804
 Charge=              1.0000 electrons
 Dipole moment (field-independent basis, Debye):
    X=              0.0000    Y=              0.0000    Z=              0.0000  Tot=              0.0000
 Quadrupole moment (field-independent basis, Debye-Ang):
   XX=           -109.1101   YY=           -158.8364   ZZ=           -160.8399
   XY=              0.0000   XZ=              0.0000   YZ=              0.0000
 Traceless Quadrupole moment (field-independent basis, Debye-Ang):
   XX=             33.8187   YY=            -15.9076   ZZ=            -17.9111
   XY=              0.0000   XZ=              0.0000   YZ=              0.0000
 Octapole moment (field-independent basis, Debye-Ang**2):
  XXX=              0.0000  YYY=              0.0000  ZZZ=              0.0000  XYY=              0.0000
  XXY=              0.0000  XXZ=              0.0000  XZZ=              0.0000  YZZ=              0.0000
  YYZ=              0.0000  XYZ=           -103.7394
 Hexadecapole moment (field-independent basis, Debye-Ang**3):
 XXXX=          -8225.7205 YYYY=          -3227.8489 ZZZZ=          -3098.4002 XXXY=              0.0000
 XXXZ=              0.0000 YYYX=              0.0000 YYYZ=              0.0000 ZZZX=              0.0000
 ZZZY=              0.0000 XXYY=          -2100.7771 XXZZ=          -2095.2487 YYZZ=           -792.2108
 XXYZ=              0.0000 YYXZ=              0.0000 ZZXY=              0.0000
 N-N= 4.011235009524D+03 E-N=-1.493992874668D+04  KE= 2.929958288563D+03
 Symmetry A    KE= 1.361790887891D+03
 Symmetry B1   KE= 5.215506137153D+02
 Symmetry B2   KE= 5.215356999504D+02
 Symmetry B3   KE= 5.250810870066D+02
  Exact polarizability: 456.405   0.000 309.922   0.000   0.000 301.332
 Approx polarizability: 662.253   0.000 498.665   0.000   0.000 484.254
 No NMR shielding tensors so no spin-rotation constants.
 Leave Link  601 at Wed Oct 17 16:03:19 2012, MaxMem=  655360000 cpu:      15.9
 (Enter /software/g09-B.01/g09/l701.exe)
 Compute integral second derivatives.
 ... and contract with generalized density number  0.
 Leave Link  701 at Wed Oct 17 16:03:20 2012, MaxMem=  655360000 cpu:       6.7
 (Enter /software/g09-B.01/g09/l702.exe)
 L702 exits ... SP integral derivatives will be done elsewhere.
 Leave Link  702 at Wed Oct 17 16:03:20 2012, MaxMem=  655360000 cpu:       0.3
 (Enter /software/g09-B.01/g09/l703.exe)
 Compute integral second derivatives, UseDBF=F ICtDFT=           0.
 Integral derivatives from FoFDir, PRISM(SPDF).
 Calling FoFJK, ICntrl=    100127 FMM=F ISym2X=1 I1Cent= 0 IOpClX= 0 NMat=1 NMatS=1 NMatT=0.
 FoFCou: FMM=F IPFlag=           0 FMFlag=      100000 FMFlg1=        2800
         NFxFlg=           0 DoJE=F BraDBF=F KetDBF=F FulRan=T
         Omega=  0.000000  0.000000  1.000000  0.000000  0.000000 ICntrl=  100127 IOpCl=  0
         NMat0=    1 NMatS0=    1 NMatT0=    0 NMatD0=    1 NMtDS0=    0 NMtDT0=    0
         I1Cent=           0 NGrid=           0.
 Petite list used in FoFCou.
 Leave Link  703 at Wed Oct 17 16:05:39 2012, MaxMem=  655360000 cpu:    1658.7
 (Enter /software/g09-B.01/g09/l716.exe)
 Dipole        =-2.50033327D-12 7.53841434D-14-1.40576439D-12
 Polarizability= 4.56404504D+02-1.00344039D-06 3.09921555D+02
                -1.01118741D-06-5.57735885D-07 3.01332232D+02
 Full mass-weighted force constant matrix:
 Low frequencies ---   -0.0055   -0.0048   -0.0034    9.1717    9.7231   19.7288
 Low frequencies ---   20.0955   20.6544   25.6157
 Harmonic frequencies (cm**-1), IR intensities (KM/Mole), Raman scattering
 activities (A**4/AMU), depolarization ratios for plane and unpolarized
 incident light, reduced masses (AMU), force constants (mDyne/A),
 and normal coordinates:
                           1         2         3         4         5
                          B1        B2         A        B2        B1
       Frequencies ---    18.9432   19.8046   20.6544   45.0194   62.9649
    Reduced masses ---     5.7062    5.5238    4.8778    4.2661    4.4024
   Force constants ---     0.0012    0.0013    0.0012    0.0051    0.0103
    IR Intensities ---     0.1965    0.2078    0.0000    0.1205    0.0601
 Coord Atom Element:
   1     1    29          0.00000   0.00000   0.00000   0.00000   0.00000
   2     1    29          0.00000  -0.10593   0.00000   0.07680   0.00000
   3     1    29         -0.11683   0.00000   0.00000   0.00000   0.07586
   1     2     7          0.03300   0.03219   0.00105  -0.01175  -0.01018
   2     2     7         -0.00413  -0.04262  -0.03670   0.00836   0.05417
   3     2     7         -0.04287   0.00221   0.03852   0.04726  -0.00126
   1     3     7         -0.03300  -0.03219   0.00105   0.01175   0.01018
   2     3     7         -0.00413  -0.04262   0.03670   0.00836   0.05417
   3     3     7         -0.04287   0.00221  -0.03852   0.04726  -0.00126
   1     4     6          0.07129   0.06916   0.00005  -0.03215  -0.02791
   2     4     6         -0.04298   0.07992  -0.08528  -0.00830   0.02718
   3     4     6          0.08174  -0.04098   0.08700   0.02637  -0.00600
   1     5     6         -0.07129  -0.06916   0.00005   0.03215   0.02791
   2     5     6         -0.04298   0.07992   0.08528  -0.00830   0.02718
   3     5     6          0.08174  -0.04097  -0.08700   0.02637  -0.00600
   1     6     6          0.01751   0.01717   0.00114  -0.00641  -0.00561
   2     6     6         -0.02311   0.02018  -0.02049   0.02439   0.01548
   3     6     6          0.01963  -0.02026   0.02100   0.01230   0.02258
   1     7     6         -0.01751  -0.01717   0.00114   0.00641   0.00561
   2     7     6         -0.02311   0.02018   0.02049   0.02439   0.01548
   3     7     6          0.01963  -0.02026  -0.02100   0.01230   0.02258
   1     8     6          0.06753   0.06546   0.00006  -0.02981  -0.02583
   2     8     6         -0.00816  -0.04370  -0.08268  -0.03231   0.09616
   3     8     6         -0.04083   0.00145   0.08592   0.09089  -0.04273
   1     9     6         -0.06753  -0.06546   0.00006   0.02981   0.02583
   2     9     6         -0.00816  -0.04370   0.08268  -0.03231   0.09616
   3     9     6         -0.04083   0.00145  -0.08592   0.09089  -0.04273
   1    10     6          0.03532   0.03447   0.00087  -0.01467  -0.01282
   2    10     6         -0.04270   0.08368  -0.04251   0.01926  -0.00638
   3    10     6          0.08402  -0.04229   0.04312  -0.00295   0.02752
   1    11     6         -0.03532  -0.03447   0.00087   0.01467   0.01282
   2    11     6         -0.04269   0.08368   0.04251   0.01926  -0.00638
   3    11     6          0.08402  -0.04229  -0.04312  -0.00295   0.02752
   1    12     6          0.08697   0.08435  -0.00037  -0.03940  -0.03401
   2    12     6         -0.02688   0.01767  -0.10686  -0.03995   0.08437
   3    12     6          0.02135  -0.01985   0.10985   0.07805  -0.04821
   1    13     6         -0.08697  -0.08435  -0.00037   0.03940   0.03401
   2    13     6         -0.02688   0.01767   0.10686  -0.03995   0.08437
   3    13     6          0.02135  -0.01985  -0.10985   0.07805  -0.04821
   1    14     1          0.08586   0.08336  -0.00033  -0.03895  -0.03376
   2    14     1         -0.05537   0.12563  -0.10153  -0.01165   0.01304
   3    14     1          0.12772  -0.05554   0.10282   0.01427  -0.00486
   1    15     1         -0.08586  -0.08336  -0.00033   0.03895   0.03376
   2    15     1         -0.05537   0.12563   0.10153  -0.01165   0.01304
   3    15     1          0.12772  -0.05554  -0.10283   0.01427  -0.00486
   1    16     1          0.11396   0.11073  -0.00066  -0.05126  -0.04436
   2    16     1         -0.02817   0.01428  -0.14129  -0.07043   0.11862
   3    16     1          0.02023  -0.01875   0.14520   0.11035  -0.08246
   1    17     1         -0.11396  -0.11073  -0.00066   0.05126   0.04436
   2    17     1         -0.02817   0.01427   0.14129  -0.07043   0.11862
   3    17     1          0.02023  -0.01875  -0.14520   0.11035  -0.08246
   1    18     6          0.01680   0.01647   0.00082  -0.00670  -0.00590
   2    18     6         -0.06075   0.14704  -0.02040   0.03291  -0.05112
   3    18     6          0.14698  -0.06393   0.02089  -0.03649   0.05628
   1    19     6         -0.01680  -0.01647   0.00082   0.00670   0.00590
   2    19     6         -0.06075   0.14704   0.02040   0.03291  -0.05112
   3    19     6          0.14698  -0.06393  -0.02089  -0.03649   0.05628
   1    20     1          0.03044   0.02987   0.00091  -0.01227  -0.01081
   2    20     1         -0.07336   0.19305  -0.03648   0.03705  -0.07649
   3    20     1          0.19287  -0.07882   0.03762  -0.05417   0.07049
   1    21     1         -0.03044  -0.02987   0.00091   0.01227   0.01081
   2    21     1         -0.07335   0.19305   0.03648   0.03705  -0.07649
   3    21     1          0.19287  -0.07882  -0.03762  -0.05417   0.07049
   1    22     6          0.08435   0.08137  -0.00106  -0.04087  -0.03479
   2    22     6          0.00571  -0.11159  -0.11189  -0.07937   0.16116
   3    22     6         -0.10689   0.02265   0.11925   0.17282  -0.08289
   1    23     6         -0.08435  -0.08137  -0.00106   0.04087   0.03479
   2    23     6          0.00572  -0.11159   0.11189  -0.07937   0.16116
   3    23     6         -0.10689   0.02265  -0.11925   0.17282  -0.08289
   1    24     1         -0.11285  -0.04014  -0.01422   0.08223   0.01677
   2    24     1          0.01041  -0.14372   0.13370  -0.10978   0.20709
   3    24     1         -0.13831   0.01352  -0.09076   0.16746  -0.00841
   1    25     1          0.11285   0.04014  -0.01422  -0.08223  -0.01677
   2    25     1          0.01041  -0.14372  -0.13370  -0.10978   0.20709
   3    25     1         -0.13831   0.01352   0.09076   0.16746  -0.00841
   1    26     1         -0.11474  -0.10840  -0.00363   0.06245   0.05044
   2    26     1          0.00289  -0.12233   0.14447  -0.11223   0.22637
   3    26     1         -0.10218   0.03509  -0.15171   0.20440  -0.14917
   1    27     1          0.11474   0.10840  -0.00363  -0.06245  -0.05044
   2    27     1          0.00289  -0.12233  -0.14447  -0.11223   0.22637
   3    27     1         -0.10218   0.03509   0.15171   0.20440  -0.14917
   1    28     1         -0.03759  -0.10689   0.01382  -0.01281   0.04472
   2    28     1          0.01425  -0.12153   0.08144  -0.05549   0.09862
   3    28     1         -0.13357   0.03487  -0.14415   0.22072  -0.11792
   1    29     1          0.03759   0.10689   0.01383   0.01281  -0.04472
   2    29     1          0.01424  -0.12153  -0.08145  -0.05549   0.09862
   3    29     1         -0.13357   0.03486   0.14415   0.22072  -0.11792
   1    30     7         -0.03300   0.03219  -0.00105  -0.01175   0.01018
   2    30     7          0.00413  -0.04262   0.03670   0.00836  -0.05417
   3    30     7         -0.04287  -0.00221   0.03852  -0.04726  -0.00126
   1    31     7          0.03300  -0.03219  -0.00105   0.01175  -0.01018
   2    31     7          0.00413  -0.04262  -0.03670   0.00836  -0.05417
   3    31     7         -0.04287  -0.00221  -0.03852  -0.04726  -0.00126
   1    32     6         -0.07129   0.06916  -0.00005  -0.03215   0.02791
   2    32     6          0.04298   0.07992   0.08528  -0.00830  -0.02718
   3    32     6          0.08174   0.04097   0.08700  -0.02637  -0.00600
   1    33     6          0.07129  -0.06916  -0.00005   0.03215  -0.02791
   2    33     6          0.04298   0.07992  -0.08528  -0.00830  -0.02718
   3    33     6          0.08174   0.04098  -0.08700  -0.02637  -0.00600
   1    34     6         -0.01751   0.01717  -0.00114  -0.00641   0.00561
   2    34     6          0.02311   0.02018   0.02049   0.02439  -0.01548
   3    34     6          0.01963   0.02026   0.02100  -0.01230   0.02258
   1    35     6          0.01751  -0.01717  -0.00114   0.00641  -0.00561
   2    35     6          0.02311   0.02018  -0.02049   0.02439  -0.01548
   3    35     6          0.01963   0.02026  -0.02100  -0.01230   0.02258
   1    36     6         -0.06753   0.06546  -0.00006  -0.02981   0.02583
   2    36     6          0.00816  -0.04370   0.08268  -0.03231  -0.09616
   3    36     6         -0.04083  -0.00145   0.08592  -0.09089  -0.04273
   1    37     6          0.06753  -0.06546  -0.00006   0.02981  -0.02583
   2    37     6          0.00816  -0.04370  -0.08268  -0.03231  -0.09616
   3    37     6         -0.04083  -0.00145  -0.08592  -0.09089  -0.04273
   1    38     6         -0.03532   0.03447  -0.00087  -0.01467   0.01282
   2    38     6          0.04270   0.08368   0.04251   0.01926   0.00638
   3    38     6          0.08402   0.04229   0.04312   0.00295   0.02752
   1    39     6          0.03532  -0.03447  -0.00087   0.01467  -0.01282
   2    39     6          0.04270   0.08368  -0.04251   0.01926   0.00638
   3    39     6          0.08402   0.04229  -0.04312   0.00295   0.02752
   1    40     6         -0.08697   0.08435   0.00037  -0.03940   0.03401
   2    40     6          0.02688   0.01767   0.10686  -0.03995  -0.08437
   3    40     6          0.02135   0.01985   0.10985  -0.07805  -0.04821
   1    41     6          0.08697  -0.08435   0.00037   0.03940  -0.03401
   2    41     6          0.02688   0.01767  -0.10686  -0.03995  -0.08437
   3    41     6          0.02135   0.01985  -0.10985  -0.07805  -0.04821
   1    42     1         -0.08586   0.08336   0.00033  -0.03895   0.03376
   2    42     1          0.05537   0.12563   0.10153  -0.01165  -0.01304
   3    42     1          0.12772   0.05554   0.10282  -0.01427  -0.00486
   1    43     1          0.08586  -0.08336   0.00033   0.03895  -0.03376
   2    43     1          0.05537   0.12563  -0.10153  -0.01165  -0.01304
   3    43     1          0.12772   0.05554  -0.10282  -0.01427  -0.00486
   1    44     1         -0.11396   0.11073   0.00066  -0.05126   0.04436
   2    44     1          0.02817   0.01427   0.14129  -0.07043  -0.11862
   3    44     1          0.02023   0.01875   0.14520  -0.11035  -0.08246
   1    45     1          0.11396  -0.11073   0.00066   0.05126  -0.04436
   2    45     1          0.02817   0.01428  -0.14129  -0.07043  -0.11862
   3    45     1          0.02023   0.01875  -0.14520  -0.11035  -0.08246
   1    46     6         -0.01680   0.01647  -0.00082  -0.00670   0.00590
   2    46     6          0.06075   0.14704   0.02040   0.03291   0.05112
   3    46     6          0.14698   0.06393   0.02089   0.03649   0.05628
   1    47     6          0.01680  -0.01647  -0.00082   0.00670  -0.00590
   2    47     6          0.06075   0.14704  -0.02040   0.03291   0.05112
   3    47     6          0.14698   0.06393  -0.02089   0.03649   0.05628
   1    48     1         -0.03044   0.02987  -0.00091  -0.01227   0.01081
   2    48     1          0.07336   0.19305   0.03648   0.03705   0.07649
   3    48     1          0.19287   0.07882   0.03762   0.05417   0.07049
   1    49     1          0.03044  -0.02987  -0.00091   0.01227  -0.01081
   2    49     1          0.07336   0.19305  -0.03648   0.03705   0.07649
   3    49     1          0.19287   0.07882  -0.03762   0.05417   0.07049
   1    50     6         -0.08435   0.08137   0.00106  -0.04087   0.03479
   2    50     6         -0.00571  -0.11159   0.11189  -0.07937  -0.16116
   3    50     6         -0.10689  -0.02265   0.11925  -0.17282  -0.08289
[...]
 529,-0.00019438,0.00007502,0.00000414,-0.00000791,-0.00000914,0.000002
 84,0.00001086,0.00000906,0.00014059,0.00009691,0.00001865,0.00013329,-
 0.00001066,-0.00008855,-0.00001823,-0.00008316,-0.00013063,-0.00002952
 ,0.00011795,0.00007282,0.00000288,0.00003650,0.00001088,0.00000342,-0.
 00001467,-0.00003551,-0.00000793,0.00002813,-0.00001752,-0.00000380,0.
 00001261,-0.00002695,-0.00000717,-0.00000412,0.00000777,-0.00000676,-0
 .00000719,0.00000368,-0.00000476,0.00000429,0.00001027,-0.00000477,-0.
 00000981,-0.00000412,-0.00000483,-0.00000640,-0.00001233,-0.00000695,0
 .00001204,0.00000565,-0.00000807,-0.00000042,0.00000609,-0.00000760,-0
 .00000618,0.00000026,0.00001075,-0.00001055,0.00002961,0.00001317,-0.0
 0002479,0.00001171,-0.00001923,0.00002484,0.00000316,-0.00000038,-0.00
 000304,0.00000476,-0.00000029,-0.00001306,-0.00000369,-0.00000108,0.00
 000223,0.00001512,-0.00000078,-0.00000517,0.00000232,-0.00003471,-0.00
 000532,-0.00006782,0.00005897,0.00007421,-0.00007349,-0.00598579,0.003
 12627,-0.00306788,-0.00003677,-0.00000391,0.00000361,0.00016887,0.0000
 1984,-0.00002537,-0.00044323,0.00002120,-0.00001792,0.00027357,0.00081
 490,-0.00074142,-0.00002029,0.00000129,-0.00000197,0.00578014,0.020438
 83,-0.02048957,0.00008119,0.00007467,-0.00007568,0.00008918,-0.0000124
 9,0.00000674,0.00001836,-0.00000305,0.00000381,0.00106743,0.00061613,-
 0.00057297,0.00000137,0.00000921,-0.00000942,0.00003823,-0.00001438,0.
 00001229,0.00000064,0.00000126,-0.00000107,-0.00051111,-0.00032906,0.0
 0031790,-0.00005534,-0.00002911,0.00002899,-0.00003729,-0.00001938,0.0
 0001888,0.00000289,-0.00000340,0.00000303,-0.00002643,0.00000923,-0.00
 000883,0.00000355,-0.00000048,0.00000098,-0.05053897,-0.01222800,0.012
 08271,0.00000208,0.00000390,-0.00001617,-0.00102560,-0.00972087,0.0127
 7754,0.00000964,-0.00000179,0.00000163,0.05257464,0.00013564,-0.000110
 76,0.00008173,0.00005232,0.00003894,-0.00011060,-0.00004993,-0.0001147
 7,0.00009980,-0.00001489,-0.00000725,-0.00001035,-0.00000962,0.0000025
 4,0.00000102,-0.00003027,-0.00001575,-0.00003041,0.00009345,-0.0000527
 1,-0.00007750,-0.00004219,0.00001719,0.00007008,0.00000834,0.00011641,
 0.00005221,0.00000815,0.00000485,0.00002441,-0.00001460,-0.00000089,-0
 .00002233,0.00002362,-0.00000132,0.00001125,-0.00001104,0.00002139,-0.
 00001550,-0.00000116,0.00000142,0.00000096,-0.00000641,-0.00000487,0.0
 0000528,0.00000032,0.00000201,0.00000062,-0.00000553,-0.00001306,-0.00
 000129,-0.00001169,-0.00000002,-0.00000614,0.00000515,0.00000540,0.000
 00201,-0.00000165,0.00000081,0.00000404,-0.00000665,-0.00000228,0.0000
 0178,0.00000151,0.00001521,-0.00003577,0.00000635,-0.00004096,-0.00000
 063,-0.00000534,0.00006309,0.00005142,0.00000077,0.00000333,-0.0000109
 2,-0.00001306,-0.00002816,0.00000067,-0.00000223,0.00000548,-0.0000029
 9,0.00000304,0.00000570,-0.00000389,0.00002401,-0.00000886,0.00005976,
 0.00001745,-0.00002888,0.00001466,0.00227057,-0.00038366,0.00169458,0.
 00002400,0.00001091,-0.00000896,0.00016065,-0.00005099,-0.00013415,0.0
 0014318,-0.00005830,0.00003674,-0.00043879,0.00046519,0.00022465,0.000
 03127,0.00002748,-0.00000189,-0.00314924,-0.00636169,0.00393788,-0.000
 04211,-0.00006604,0.00001676,0.00011323,0.00005194,-0.00005272,-0.0000
 1789,0.00000824,0.00000674,-0.00123439,-0.00001038,-0.00037248,0.00000
 313,-0.00000601,0.00000164,0.00001716,-0.00001649,0.00000007,0.0000020
 4,-0.00000706,0.00000141,0.00026694,0.00050501,-0.00002661,0.00003015,
 0.00002790,-0.00001497,0.00003838,-0.00000463,-0.00003427,0.00000319,0
 .00000064,0.00000440,0.00002332,-0.00000505,0.00000803,-0.00000685,-0.
 00000730,-0.00000281,-0.00868875,-0.18486987,0.13754383,0.00000011,-0.
 00000247,-0.00000139,0.00038957,-0.01471211,0.01755689,0.00000179,-0.0
 0000463,0.00000603,0.00976128,0.19575492,-0.00012461,0.00007091,-0.000
 10497,0.00003457,0.00009151,-0.00011182,-0.00006521,-0.00011950,0.0000
 5199,0.00000790,0.00000031,0.00000201,0.00001316,-0.00001008,-0.000006
 34,-0.00009308,-0.00008030,-0.00006583,0.00003562,-0.00002126,-0.00001
 705,-0.00002640,0.00005712,0.00013178,0.00003096,0.00006592,0.00001633
 ,0.00001709,-0.00002305,0.00000164,-0.00000698,0.00002388,0.00000374,0
 .00001373,-0.00001489,0.00002717,-0.00002192,0.00000874,-0.00000238,0.
 00000685,0.00000569,-0.00000529,0.00000127,0.00000095,0.00000130,0.000
 00512,-0.00000099,-0.00001390,-0.00000092,0.00000063,0.00000165,-0.000
 00583,0.00000197,0.00000511,0.00001185,-0.00000571,0.00000039,0.000006
 81,0.00000172,-0.00000224,0.00000156,0.00000399,0.00000092,0.00000035,
 -0.00000116,-0.00005412,-0.00000270,-0.00003209,0.00001712,-0.00000902
 ,0.00003865,-0.00000797,-0.00000503,-0.00000406,0.00000735,0.00000369,
 -0.00000067,0.00000302,0.00001512,0.00000299,-0.00003131,-0.00000150,-
 0.00001054,0.00000324,0.00002154,0.00005688,0.00011593,-0.00001614,0.0
 0001418,-0.00002676,-0.00215091,0.00162516,-0.00031803,-0.00002244,-0.
 00000911,0.00001076,-0.00015579,-0.00011971,-0.00003908,-0.00013990,0.
 00003918,-0.00006033,0.00047052,0.00021252,0.00049625,-0.00002927,-0.0
 0000094,0.00002609,0.00312439,0.00363538,-0.00605467,0.00004168,0.0000
 1339,-0.00006290,-0.00011706,-0.00005943,0.00005433,0.00001762,0.00000
 623,0.00000973,0.00120616,-0.00034208,-0.00001001,-0.00000305,0.000001
 31,-0.00000580,-0.00001623,-0.00000100,-0.00001787,-0.00000185,0.00000
 136,-0.00000698,-0.00027898,-0.00003739,0.00049457,-0.00003432,-0.0000
 1487,0.00002729,-0.00003409,-0.00003542,-0.00001248,-0.00000278,0.0000
 0506,0.00000166,-0.00002242,0.00000761,-0.00000464,0.00000687,-0.00000
 311,-0.00000679,0.00850012,0.13753560,-0.18465005,0.00000238,0.0000003
 9,0.00000271,-0.00008769,-0.00948020,0.00969997,-0.00000163,0.00000603
 ,-0.00000417,-0.00983276,-0.15091954,0.19549489,0.00002428,-0.00035778
 ,0.00022005,0.00011076,-0.00019741,0.00005578,0.00001889,0.00006299,-0
 .00012855,0.00001212,0.00001609,0.00001928,0.00002099,-0.00005123,-0.0
 0003718,-0.00003629,-0.00004186,0.00003566,-0.00015374,0.00001934,-0.0
 0001548,0.00007914,0.00000259,0.00003567,0.00035036,-0.00018178,-0.000
 05173,-0.00002207,-0.00000584,-0.00001469,-0.00006946,0.00003729,0.000
 02523,-0.00002285,0.00000148,-0.00001918,-0.00013976,0.00000600,0.0000
 1659,0.00000112,-0.00000110,0.00000061,-0.00000557,0.00000475,-0.00000
 296,0.00000369,-0.00000678,-0.00000263,0.00001514,0.00000643,0.0000114
 1,0.00000367,0.00001442,0.00002356,0.00000646,-0.00001740,-0.00000847,
 0.00000141,0.00000189,-0.00000092,-0.00000153,0.00000017,-0.00000102,0
 .00001041,0.00001070,-0.00000160,0.00001652,-0.00002624,-0.00011240,-0
 .00003463,0.00003313,-0.00003126,-0.00003156,-0.00002026,0.00001543,-0
 .00003471,0.00002401,-0.00002154,-0.00000078,-0.00000304,-0.00000150,-
 0.00018088,-0.00000421,0.00055058,-0.00001325,0.00001897,-0.00000806,0
 .00191607,0.00216680,-0.00200499,0.00017588,-0.00009209,0.00016707,-0.
 00046302,0.00132428,0.00056586,0.00005806,-0.00003225,0.00001828,-0.00
 115778,0.00063770,0.00146655,-0.00006671,0.00031684,-0.00024643,-0.019
 33548,-0.01192716,-0.02288137,0.00000927,0.00005946,-0.00006392,0.0004
 3181,-0.00030644,0.00008742,-0.00022043,0.00000506,-0.00012614,-0.0021
 9102,-0.00125678,0.00214081,-0.00004597,0.00000739,0.00002401,-0.00023
 159,-0.00018973,-0.00004724,-0.00000291,-0.00000345,-0.00000598,0.0000
 0431,-0.00036922,-0.00033555,0.00000325,-0.00000085,0.00000537,0.00007
 939,-0.00022290,-0.00004333,-0.00002124,-0.00004942,0.00007983,-0.0000
 0528,0.00001153,-0.00000198,0.00000463,0.00000419,0.00002215,-0.109692
 30,-0.05092172,-0.10622209,0.00001731,-0.00000352,-0.00001010,0.008890
 30,0.00611668,0.01350058,0.00000456,-0.00001102,0.00000204,-0.00108309
 ,-0.00014705,0.00028689,0.00000184,-0.00000286,0.00000049,0.12298227,-
 0.00091900,-0.00185478,0.00043269,0.00001211,0.00019074,-0.00008274,0.
 00013450,0.00004980,0.00012457,-0.00003116,-0.00004660,-0.00005012,-0.
 00004809,0.00005676,0.00003385,0.00014902,0.00000399,0.00003020,0.0004
 5814,-0.00025652,-0.00008806,-0.00021918,-0.00005345,-0.00009071,-0.00
 009357,0.00028222,0.00043479,0.00004934,0.00004724,0.00006800,0.000014
 43,-0.00010066,-0.00003203,0.00009139,0.00000782,0.00003843,0.00003891
 ,-0.00006755,0.00005789,-0.00000421,0.00000473,0.00000092,-0.00001088,
 0.00000510,-0.00000793,-0.00000988,0.00001258,0.00001201,-0.00001904,-
 0.00000952,-0.00003354,-0.00003365,-0.00002866,-0.00003157,-0.00000223
 ,0.00003250,0.00003194,-0.00000559,0.00000450,0.00000354,-0.00001288,0
 .00000034,-0.00000227,0.00001757,-0.00001391,0.00000335,-0.00001725,-0
 .00000225,-0.00018735,0.00002100,-0.00000372,0.00003254,0.00002044,0.0
 0003317,-0.00002656,-0.00000532,-0.00000886,-0.00005688,0.00000517,0.0
 0000570,0.00001054,0.00000421,0.00000898,0.00033295,0.00001897,-0.0000
 1024,0.00001449,-0.00034757,0.00070455,0.00054723,0.00012347,-0.000170
 57,0.00013193,0.00023016,0.00020945,-0.00017135,0.00006464,-0.00001156
 ,-0.00000496,-0.00019181,0.00015610,0.00031765,-0.00012138,0.00026167,
 -0.00012469,-0.00322966,-0.00412998,-0.00658552,0.00000888,0.00006118,
 -0.00005049,0.00006296,-0.00026765,0.00012692,-0.00015825,0.00006448,-
 0.00006299,-0.00013891,-0.00059732,0.00018202,-0.00001631,-0.00000284,
 0.00000260,-0.00002045,0.00000542,0.00002773,-0.00000022,0.00000061,-0
 .00000289,-0.00003869,0.00021084,0.00005443,0.00000433,-0.00000328,-0.
 00000219,0.00014423,-0.00002360,0.00005141,-0.00009075,-0.00007039,0.0
 0008225,-0.00000446,0.00000541,0.00000201,0.00001271,-0.00001375,-0.00
 000439,-0.05084533,-0.07872484,-0.07494221,0.00001195,0.00000535,-0.00
 000867,-0.01303695,-0.00884803,-0.01939478,0.00000307,-0.00001858,0.00
 005469,0.01241350,0.00983818,0.01781288,0.00001605,0.00000300,-0.00000
 106,0.05554135,0.08309397,0.00009741,0.00052652,-0.00022385,0.00002123
 ,0.00000529,0.00000151,-0.00012545,0.00035979,-0.00048316,-0.00001899,
 -0.00002525,-0.00002707,-0.00003772,0.00004707,0.00005211,0.00003119,-
 0.00008579,0.00004616,-0.00002098,-0.00003891,0.00007135,-0.00009577,0
 .00000129,0.00000120,-0.00035860,0.00000164,-0.00011972,0.00002545,0.0
 0002052,0.00000369,0.00001687,-0.00004343,-0.00004240,0.00004774,-0.00
 000746,0.00001793,0.00009670,-0.00003788,-0.00001444,0.00000095,0.0000
 0004,-0.00000094,0.00001018,-0.00000034,0.00000087,-0.00000409,0.00001
 019,-0.00000266,-0.00000822,-0.00001382,0.00000927,0.00000188,-0.00002
 101,-0.00001831,-0.00000920,0.00001665,-0.00000306,0.00000105,-0.00000
 389,-0.00000022,0.00000572,-0.00000323,0.00000630,-0.00001358,0.000012
 90,-0.00000654,-0.00041920,0.00029189,-0.00063178,0.00009357,-0.000051
 98,0.00011361,0.00002778,0.00002280,-0.00000188,0.00006782,-0.00005976
 ,0.00011593,0.00000232,0.00000389,0.00000324,0.00055058,-0.00033295,0.
 00144686,0.00000806,-0.00001449,0.00001102,0.00089139,0.00036988,-0.00
 014479,0.00005743,0.00006296,0.00005571,0.00011825,-0.00023454,-0.0002
 1189,-0.00000924,-0.00000504,0.00000153,-0.00063296,-0.00051375,0.0002
 6295,0.00003432,-0.00005473,-0.00017525,0.00559472,0.00549729,0.009570
 45,-0.00001937,-0.00001644,0.00004181,0.00028753,0.00006911,0.00008011
 ,0.00003663,-0.00005270,0.00002589,0.00037910,-0.00029991,-0.00036569,
 0.00000277,-0.00000281,0.00001500,0.00003454,0.00004661,0.00003986,0.0
 0000083,0.,0.00000392,0.00020142,-0.00013431,0.00011718,-0.00000002,0.
 00000511,0.00000044,-0.00009173,-0.00005794,-0.00002807,0.00009547,0.0
 0002913,-0.00004965,0.00000654,0.00000170,-0.00000616,-0.00000529,0.00
 002047,0.00001979,-0.10456855,-0.07387147,-0.20873185,-0.00000344,-0.0
 0001097,-0.00000517,-0.00596478,-0.00280249,-0.00887824,-0.00001085,0.
 00000835,-0.00001766,-0.00949749,-0.00962401,-0.01500243,-0.00000344,0
 .00000076,-0.00000275,0.11307131,0.08099315,0.22305970,0.00002428,0.00
 035778,-0.00022005,0.00001889,-0.00006299,0.00012855,0.00011076,0.0001
 9741,-0.00005578,0.00002099,0.00005123,0.00003718,0.00001212,-0.000016
 09,-0.00001928,-0.00015374,-0.00001934,0.00001548,-0.00003629,0.000041
 86,-0.00003566,0.00035036,0.00018178,0.00005173,0.00007914,-0.00000259
 ,-0.00003567,-0.00006946,-0.00003729,-0.00002523,-0.00002207,0.0000058
 4,0.00001469,-0.00013976,-0.00000600,-0.00001659,-0.00002285,-0.000001
 48,0.00001918,-0.00000557,-0.00000475,0.00000296,0.00000112,0.00000110
 ,-0.00000061,0.00001514,-0.00000643,-0.00001141,0.00000369,0.00000678,
 0.00000263,0.00000646,0.00001740,0.00000847,0.00000367,-0.00001442,-0.
 00002356,-0.00000153,-0.00000017,0.00000102,0.00000141,-0.00000189,0.0
 0000092,0.00001652,0.00002624,0.00011240,0.00001041,-0.00001070,0.0000
 0160,-0.00003156,0.00002026,-0.00001543,-0.00003463,-0.00003313,0.0000
 3126,-0.00000078,0.00000304,0.00000150,-0.00003471,-0.00002401,0.00002
 154,-0.00001325,-0.00001897,0.00000806,-0.00018088,0.00000421,-0.00055
 058,0.00017588,0.00009209,-0.00016707,0.00191607,-0.00216680,0.0020049
 9,0.00005806,0.00003225,-0.00001828,-0.00046302,-0.00132428,-0.0005658
 6,-0.00006671,-0.00031684,0.00024643,-0.00115778,-0.00063770,-0.001466
 55,0.00000927,-0.00005946,0.00006392,-0.01933548,0.01192716,0.02288137
 ,-0.00022043,-0.00000506,0.00012614,0.00043181,0.00030644,-0.00008742,
 -0.00004597,-0.00000739,-0.00002401,-0.00219102,0.00125678,-0.00214081
 ,-0.00000291,0.00000345,0.00000598,-0.00023159,0.00018973,0.00004724,0
 .00000325,0.00000085,-0.00000537,0.00000431,0.00036922,0.00033555,-0.0
 0002124,0.00004942,-0.00007983,0.00007939,0.00022290,0.00004333,0.0000
 0463,-0.00000419,-0.00002215,-0.00000528,-0.00001153,0.00000198,0.0000
 1731,0.00000352,0.00001010,-0.10969230,0.05092172,0.10622209,0.0000045
 6,0.00001102,-0.00000204,0.00889030,-0.00611668,-0.01350058,0.00000184
 ,0.00000286,-0.00000049,-0.00108309,0.00014705,-0.00028689,0.00000996,
 0.00000016,0.00000022,0.12298227,0.00091900,-0.00185478,0.00043269,-0.
 00013450,0.00004980,0.00012457,-0.00001211,0.00019074,-0.00008274,0.00
 004809,0.00005676,0.00003385,0.00003116,-0.00004660,-0.00005012,-0.000
 45814,-0.00025652,-0.00008806,-0.00014902,0.00000399,0.00003020,0.0000
 9357,0.00028222,0.00043479,0.00021918,-0.00005345,-0.00009071,-0.00001
 443,-0.00010066,-0.00003203,-0.00004934,0.00004724,0.00006800,-0.00003
 891,-0.00006755,0.00005789,-0.00009139,0.00000782,0.00003843,0.0000108
 8,0.00000510,-0.00000793,0.00000421,0.00000473,0.00000092,0.00001904,-
 0.00000952,-0.00003354,0.00000988,0.00001258,0.00001201,0.00000223,0.0
 0003250,0.00003194,0.00003365,-0.00002866,-0.00003157,0.00001288,0.000
 00034,-0.00000227,0.00000559,0.00000450,0.00000354,0.00001725,-0.00000
 225,-0.00018735,-0.00001757,-0.00001391,0.00000335,-0.00002044,0.00003
 317,-0.00002656,-0.00002100,-0.00000372,0.00003254,-0.00000517,0.00000
 570,0.00001054,0.00000532,-0.00000886,-0.00005688,-0.00001897,-0.00001
 024,0.00001449,-0.00000421,0.00000898,0.00033295,-0.00012347,-0.000170
 57,0.00013193,0.00034757,0.00070455,0.00054723,-0.00006464,-0.00001156
 ,-0.00000496,-0.00023016,0.00020945,-0.00017135,0.00012138,0.00026167,
 -0.00012469,0.00019181,0.00015610,0.00031765,-0.00000888,0.00006118,-0
 .00005049,0.00322966,-0.00412998,-0.00658552,0.00015825,0.00006448,-0.
 00006299,-0.00006296,-0.00026765,0.00012692,0.00001631,-0.00000284,0.0
 0000260,0.00013891,-0.00059732,0.00018202,0.00000022,0.00000061,-0.000
 00289,0.00002045,0.00000542,0.00002773,-0.00000433,-0.00000328,-0.0000
 0219,0.00003869,0.00021084,0.00005443,0.00009075,-0.00007039,0.0000822
 5,-0.00014423,-0.00002360,0.00005141,-0.00001271,-0.00001375,-0.000004
 39,0.00000446,0.00000541,0.00000201,-0.00001195,0.00000535,-0.00000867
 ,0.05084533,-0.07872484,-0.07494221,-0.00000307,-0.00001858,0.00005469
 ,0.01303695,-0.00884803,-0.01939478,-0.00001605,0.00000300,-0.00000106
 ,-0.01241350,0.00983818,0.01781288,-0.00000016,-0.00002725,-0.00000366
 ,-0.05554135,0.08309397,-0.00009741,0.00052652,-0.00022385,0.00012545,
 0.00035979,-0.00048316,-0.00002123,0.00000529,0.00000151,0.00003772,0.
 00004707,0.00005211,0.00001899,-0.00002525,-0.00002707,0.00002098,-0.0
 0003891,0.00007135,-0.00003119,-0.00008579,0.00004616,0.00035860,0.000
 00164,-0.00011972,0.00009577,0.00000129,0.00000120,-0.00001687,-0.0000
 4343,-0.00004240,-0.00002545,0.00002052,0.00000369,-0.00009670,-0.0000
 3788,-0.00001444,-0.00004774,-0.00000746,0.00001793,-0.00001018,-0.000
 00034,0.00000087,-0.00000095,0.00000004,-0.00000094,0.00000822,-0.0000
 1382,0.00000927,0.00000409,0.00001019,-0.00000266,0.00000920,0.0000166
 5,-0.00000306,-0.00000188,-0.00002101,-0.00001831,-0.00000572,-0.00000
 323,0.00000630,-0.00000105,-0.00000389,-0.00000022,0.00041920,0.000291
 89,-0.00063178,0.00001358,0.00001290,-0.00000654,-0.00002778,0.0000228
 0,-0.00000188,-0.00009357,-0.00005198,0.00011361,-0.00000232,0.0000038
 9,0.00000324,-0.00006782,-0.00005976,0.00011593,-0.00000806,-0.0000144
 9,0.00001102,-0.00055058,-0.00033295,0.00144686,-0.00005743,0.00006296
 ,0.00005571,-0.00089139,0.00036988,-0.00014479,0.00000924,-0.00000504,
 0.00000153,-0.00011825,-0.00023454,-0.00021189,-0.00003432,-0.00005473
 ,-0.00017525,0.00063296,-0.00051375,0.00026295,0.00001937,-0.00001644,
 0.00004181,-0.00559472,0.00549729,0.00957045,-0.00003663,-0.00005270,0
 .00002589,-0.00028753,0.00006911,0.00008011,-0.00000277,-0.00000281,0.
 00001500,-0.00037910,-0.00029991,-0.00036569,-0.00000083,0.,0.00000392
 ,-0.00003454,0.00004661,0.00003986,0.00000002,0.00000511,0.00000044,-0
 .00020142,-0.00013431,0.00011718,-0.00009547,0.00002913,-0.00004965,0.
 00009173,-0.00005794,-0.00002807,0.00000529,0.00002047,0.00001979,-0.0
 0000654,0.00000170,-0.00000616,0.00000344,-0.00001097,-0.00000517,0.10
 456855,-0.07387147,-0.20873185,0.00001085,0.00000835,-0.00001766,0.005
 96478,-0.00280249,-0.00887824,0.00000344,0.00000076,-0.00000275,0.0094
 9749,-0.00962401,-0.01500243,-0.00000022,-0.00000366,0.00000024,-0.113
 07131,0.08099315,0.22305970\\0.,0.,0.,-0.00040727,0.00016232,0.0002119
 5,-0.00040727,-0.00016232,-0.00021195,-0.00014914,-0.00011566,-0.00011
 111,-0.00014914,0.00011566,0.00011111,-0.00001195,-0.00003317,-0.00006
 785,-0.00001195,0.00003317,0.00006785,-0.00013876,-0.00013762,-0.00017
 879,-0.00013876,0.00013762,0.00017879,0.00004787,-0.00003091,-0.000037
 04,0.00004787,0.00003091,0.00003704,0.00006876,0.00009124,0.00008577,0
 .00006876,-0.00009124,-0.00008577,0.00002560,0.00001229,-0.00001026,0.
 00002560,-0.00001229,0.00001026,-0.00012411,0.00002165,0.00000586,-0.0
 0012411,-0.00002165,-0.00000586,0.00008984,0.00017304,0.00017655,0.000
 08984,-0.00017304,-0.00017655,0.00005819,0.00003496,0.00001198,0.00005
 819,-0.00003496,-0.00001198,0.00003467,0.00000033,-0.00002862,0.000034
 67,-0.00000033,0.00002862,0.00001123,-0.00008396,-0.00017326,0.0000112
 3,0.00008396,0.00017326,0.00013105,-0.00002502,-0.00002440,0.00013105,
 0.00002502,0.00002440,0.00002515,-0.00023039,-0.00027497,0.00002515,0.
 00023039,0.00027497,0.00040727,-0.00016232,0.00021195,0.00040727,0.000
 16232,-0.00021195,0.00014914,0.00011566,-0.00011111,0.00014914,-0.0001
 1566,0.00011111,0.00001195,0.00003317,-0.00006785,0.00001195,-0.000033
 17,0.00006785,0.00013876,0.00013762,-0.00017879,0.00013876,-0.00013762
 ,0.00017879,-0.00004787,0.00003091,-0.00003704,-0.00004787,-0.00003091
 ,0.00003704,-0.00006876,-0.00009124,0.00008577,-0.00006876,0.00009124,
 -0.00008577,-0.00002560,-0.00001229,-0.00001026,-0.00002560,0.00001229
 ,0.00001026,0.00012411,-0.00002165,0.00000586,0.00012411,0.00002165,-0
 .00000586,-0.00008984,-0.00017304,0.00017655,-0.00008984,0.00017304,-0
 .00017655,-0.00005819,-0.00003496,0.00001198,-0.00005819,0.00003496,-0
 .00001198,-0.00003467,-0.00000033,-0.00002862,-0.00003467,0.00000033,0
 .00002862,-0.00001123,-0.00008396,0.00017326,-0.00001123,0.00008396,-0
 .00017326,-0.00013105,-0.00002502,0.00002440,-0.00013105,0.00002502,-0
 .00002440,-0.00002515,-0.00023039,0.00027497,-0.00002515,0.00023039,-0
 .00027497\\\@


 LEARN FROM YESTERDAY,
 LIVE FOR TODAY,
 LOOK TO TOMORROW,
 REST THIS AFTERNOON.

           -- SNOOPY
 Job cpu time:  0 days  5 hours 17 minutes 27.8 seconds.
 File lengths (MBytes):  RWF=    704 Int=      0 D2E=      0 Chk=     18 Scr=      1
 Normal termination of Gaussian 09 at Wed Oct 17 16:05:46 2012.
